 Entering Gaussian System, Link 0=g09
 Input=/home/vmi38398/chem/asymmetric_hydrogenation/debug/S_binap/S_binap-TMEN_Ph/R/ts1/Cf1/S_binap-TMEN_Ph.R.ts1.Cf1.2.com
 Output=/home/vmi38398/chem/asymmetric_hydrogenation/debug/S_binap/S_binap-TMEN_Ph/R/ts1/Cf1/S_binap-TMEN_Ph.R.ts1.Cf1.2.log
 Initial command:
 /usr/local/apps/eb/gaussian/09-Intel-SSE4_2/g09/l1.exe "/lscratch/vmi38398/651431.sapelo2/Gau-140361.inp" -scrdir="/lscratch/vmi38398/651431.sapelo2/"
 Default is to use a total of  14 processors:
                               14 via shared-memory
                                1 via Linda
 Entering Link 1 = /usr/local/apps/eb/gaussian/09-Intel-SSE4_2/g09/l1.exe PID=    140362.
  
 Copyright (c) 1988,1990,1992,1993,1995,1998,2003,2009,2013,
            Gaussian, Inc.  All Rights Reserved.
  
 This is part of the Gaussian(R) 09 program.  It is based on
 the Gaussian(R) 03 system (copyright 2003, Gaussian, Inc.),
 the Gaussian(R) 98 system (copyright 1998, Gaussian, Inc.),
 the Gaussian(R) 94 system (copyright 1995, Gaussian, Inc.),
 the Gaussian 92(TM) system (copyright 1992, Gaussian, Inc.),
 the Gaussian 90(TM) system (copyright 1990, Gaussian, Inc.),
 the Gaussian 88(TM) system (copyright 1988, Gaussian, Inc.),
 the Gaussian 86(TM) system (copyright 1986, Carnegie Mellon
 University), and the Gaussian 82(TM) system (copyright 1983,
 Carnegie Mellon University). Gaussian is a federally registered
 trademark of Gaussian, Inc.
  
 This software contains proprietary and confidential information,
 including trade secrets, belonging to Gaussian, Inc.
  
 This software is provided under written license and may be
 used, copied, transmitted, or stored only in accord with that
 written license.
  
 The following legend is applicable only to US Government
 contracts under FAR:
  
                    RESTRICTED RIGHTS LEGEND
  
 Use, reproduction and disclosure by the US Government is
 subject to restrictions as set forth in subparagraphs (a)
 and (c) of the Commercial Computer Software - Restricted
 Rights clause in FAR 52.227-19.
  
 Gaussian, Inc.
 340 Quinnipiac St., Bldg. 40, Wallingford CT 06492
  
  
 ---------------------------------------------------------------
 Warning -- This program may not be used in any manner that
 competes with the business of Gaussian, Inc. or will provide
 assistance to any competitor of Gaussian, Inc.  The licensee
 of this program is prohibited from giving any competitor of
 Gaussian, Inc. access to this program.  By using this program,
 the user acknowledges that Gaussian, Inc. is engaged in the
 business of creating and licensing software in the field of
 computational chemistry and represents and warrants to the
 licensee that it is not a competitor of Gaussian, Inc. and that
 it will not use this program in any manner prohibited above.
 ---------------------------------------------------------------
  

 Cite this work as:
 Gaussian 09, Revision D.01,
 M. J. Frisch, G. W. Trucks, H. B. Schlegel, G. E. Scuseria, 
 M. A. Robb, J. R. Cheeseman, G. Scalmani, V. Barone, B. Mennucci, 
 G. A. Petersson, H. Nakatsuji, M. Caricato, X. Li, H. P. Hratchian, 
 A. F. Izmaylov, J. Bloino, G. Zheng, J. L. Sonnenberg, M. Hada, 
 M. Ehara, K. Toyota, R. Fukuda, J. Hasegawa, M. Ishida, T. Nakajima, 
 Y. Honda, O. Kitao, H. Nakai, T. Vreven, J. A. Montgomery, Jr., 
 J. E. Peralta, F. Ogliaro, M. Bearpark, J. J. Heyd, E. Brothers, 
 K. N. Kudin, V. N. Staroverov, T. Keith, R. Kobayashi, J. Normand, 
 K. Raghavachari, A. Rendell, J. C. Burant, S. S. Iyengar, J. Tomasi, 
 M. Cossi, N. Rega, J. M. Millam, M. Klene, J. E. Knox, J. B. Cross, 
 V. Bakken, C. Adamo, J. Jaramillo, R. Gomperts, R. E. Stratmann, 
 O. Yazyev, A. J. Austin, R. Cammi, C. Pomelli, J. W. Ochterski, 
 R. L. Martin, K. Morokuma, V. G. Zakrzewski, G. A. Voth, 
 P. Salvador, J. J. Dannenberg, S. Dapprich, A. D. Daniels, 
 O. Farkas, J. B. Foresman, J. V. Ortiz, J. Cioslowski, 
 and D. J. Fox, Gaussian, Inc., Wallingford CT, 2013.
 
 ******************************************
 Gaussian 09:  ES64L-G09RevD.01 24-Apr-2013
                19-Dec-2018 
 ******************************************
 ----------------------------------------------------------------------
 #wb97xd/genecp opt=(modredundant,maxcyc=1000) scrf=(pcm,solvent=2-prop
 anol)
 ----------------------------------------------------------------------
 1/6=1000,14=-1,18=120,19=15,26=3,38=1/1,3;
 2/9=110,12=2,17=6,18=5,40=1/2;
 3/5=7,11=2,16=1,17=8,25=1,30=1,70=2201,71=1,72=73,74=-58/1,2,3;
 4//1;
 5/5=2,38=5,53=73/2;
 6/7=2,8=2,9=2,10=2,28=1/1;
 7//1,2,3,16;
 1/6=1000,14=-1,18=20,19=15,26=3/3(2);
 2/9=110/2;
 99//99;
 2/9=110/2;
 3/5=7,6=1,11=2,16=1,17=8,25=1,30=1,70=2205,71=1,72=73,74=-58,82=7/1,2,3;
 4/5=5,16=3,69=1/1;
 5/5=2,38=5,53=73/2;
 7//1,2,3,16;
 1/6=1000,14=-1,18=20,19=15,26=3/3(-5);
 2/9=110/2;
 6/7=2,8=2,9=2,10=2,19=2,28=1/1;
 99/9=1/99;
 --------------------------
 step 2 (attempt 1) cycle 1
 --------------------------
 Symbolic Z-matrix:
 Charge =  0 Multiplicity = 1
 H                    -1.32054  -0.7589   -4.97019 
 C                    -0.83724  -0.67507  -3.98708 
 C                    -1.94837  -0.44727  -2.97023 
 O                    -2.6033    0.62343  -3.03495 
 C                    -2.65181  -1.79465  -2.81579 
 H                    -0.27895  -1.5963   -3.81261 
 H                    -0.14405   0.16909  -4.01641 
 H                    -0.87528  -0.29689  -1.62782 
 H                    -0.64154   0.77071   1.63835 
 N                    -2.22011   1.66966  -0.35157 
 N                    -2.41747  -0.87795   0.6013 
 C                    -3.38382   1.38617   0.51471 
 H                    -1.96748   2.65273  -0.26196 
 H                    -2.47083   1.51059  -1.33736 
 C                    -3.67026  -0.11878   0.39015 
 H                    -2.48846  -1.76411   0.10147 
 H                    -2.32917  -1.12469   1.58359 
 C                    -4.59821   2.25198   0.10575 
 C                    -2.96153   1.79097   1.95331 
 C                    -4.41279  -0.46185  -0.90313 
 C                    -4.66452  -0.54997   1.53147 
 C                    -2.1162   -2.83844  -2.05549 
 C                    -3.81492  -2.02134  -3.57438 
 C                    -3.90511  -4.30691  -2.77435 
 C                    -4.43864  -3.26885  -3.54986 
 C                    -2.74337  -4.08994  -2.03008 
 H                    -1.19903  -2.66954  -1.49134 
 H                    -2.31905  -4.89603  -1.43718 
 H                    -4.39135  -5.27838  -2.75884 
 H                    -5.33838  -3.43848  -4.13713 
 H                    -4.22257  -1.20488  -4.17299 
 H                    -4.41238   3.31614   0.28206 
 H                    -5.49046   1.97988   0.67844 
 H                    -4.84398   2.14041  -0.95884 
 H                    -2.88025   2.87458   2.06182 
 H                    -1.93267   1.36098   2.17079 
 H                    -3.65652   1.43538   2.71311 
 H                    -3.97852   0.0554   -1.7875 
 H                    -5.46051  -0.14623  -0.86959 
 H                    -4.41958  -1.53701  -1.10947 
 H                    -4.23927  -0.42369   2.531 
 H                    -4.96008  -1.59711   1.41754 
 H                    -5.5821    0.04644   1.49485 
 Ru                   -0.62193   0.26808   0.06439 
 P                     1.07205   1.71869  -0.34745 
 P                     0.81151  -1.37184   0.70896 
 C                     0.55526   3.145    -1.41523 
 C                     1.97994   2.59379   1.00651 
 C                     2.4926    0.93221  -1.24347 
 C                    -0.11544  -2.48291   1.86409 
 C                     1.60408  -2.58882  -0.43067 
 C                     2.341    -0.8059    1.59984 
 C                     3.33578   0.04627  -0.58629 
 C                     2.60045   1.09163  -2.65079 
 C                     3.33694  -0.12514   0.90812 
 C                     2.46312  -0.97926   3.00323 
 C                     4.28462  -0.72389  -1.34298 
 C                     3.51379   0.38421  -3.38194 
 H                     1.94937   1.7938   -3.16019 
 C                     4.45682   0.42048   1.62607 
 C                     3.50924  -0.44591   3.70435 
 H                     1.71903  -1.55347   3.54106 
 C                     4.37499  -0.54687  -2.75091 
 C                     5.13058  -1.6949   -0.73828 
 H                     3.58576   0.52763  -4.45722 
 C                     4.52546   0.28009   3.03897 
 C                     5.51015   1.12556   0.97778 
 H                     3.57546  -0.58565   4.78041 
 C                     5.30218  -1.31658  -3.50131 
 C                     6.01244  -2.43204  -1.488 
 H                     5.06355  -1.86999   0.32991 
 C                     5.61174   0.8506    3.755 
 C                     6.55752   1.65159   1.69023 
 H                     5.47918   1.26388  -0.09684 
 C                     6.10652  -2.24058  -2.88574 
 H                     5.35443  -1.16301  -4.57638 
 H                     6.63929  -3.17577  -1.00421 
 C                     6.61007   1.52076   3.09726 
 H                     5.6368    0.73814   4.83603 
 H                     7.34699   2.18698   1.17049 
 H                     6.81024  -2.83022  -3.46624 
 H                     7.43996   1.95142   3.65012 
 C                     0.82744   4.48948  -1.13825 
 C                    -0.25736   2.85102  -2.51851 
 C                     0.32389   5.50137  -1.95561 
 H                     1.42639   4.76771  -0.2786 
 C                    -0.75232   3.85682  -3.34145 
 H                    -0.53079   1.82144  -2.71815 
 C                    -0.46011   5.19061  -3.06285 
 H                     0.54641   6.53809  -1.71862 
 H                    -1.37864   3.59473  -4.18971 
 H                    -0.85051   5.98165  -3.69692 
 C                     3.14155   3.31828   0.70808 
 C                     1.54835   2.54133   2.3329 
 C                     3.85126   3.97307   1.70883 
 H                     3.50559   3.36279  -0.31548 
 C                     2.26924   3.17905   3.34133 
 H                     0.65677   1.97347   2.5794 
 C                     3.4224    3.89544   3.03272 
 H                     4.7524    4.525     1.45765 
 H                     1.92962   3.10901   4.37111 
 H                     3.98664   4.38925   3.81887 
 C                    -0.54933  -3.74618   1.44682 
 C                    -0.64383  -1.96605   3.05866 
 C                    -1.46313  -4.47789   2.20565 
 H                    -0.19139  -4.16842   0.51384 
 C                    -1.54169  -2.70268   3.82536 
 H                    -0.38472  -0.96029   3.37605 
 C                    -1.95775  -3.96357   3.39945 
 H                    -1.78959  -5.45264   1.85394 
 H                    -1.93165  -2.28048   4.74724 
 H                    -2.67024  -4.53306   3.98918 
 C                     2.33984  -3.67519   0.06065 
 C                     1.54474  -2.38323  -1.80618 
 C                     2.97321  -4.55113  -0.81434 
 H                     2.4182   -3.8402    1.13279 
 C                     2.18627  -3.25197  -2.68724 
 H                     1.01491  -1.51377  -2.18064 
 C                     2.89822  -4.34014  -2.19222 
 H                     3.538    -5.39223  -0.42206 
 H                     2.14147  -3.06592  -3.75679 
 H                     3.40448  -5.01737  -2.87435 
 
 Add virtual bond connecting atoms H8         and C3         Dist= 3.26D+00.
 The following ModRedundant input section has been read:
 B       8      44 F                                                           
 B       3       8 F                                                           
 B       3       4 F                                                           
 

 GradGradGradGradGradGradGradGradGradGradGradGradGradGradGradGradGradGrad
 Berny optimization.
 Initialization pass.
                           ----------------------------
                           !    Initial Parameters    !
                           ! (Angstroms and Degrees)  !
 --------------------------                            --------------------------
 ! Name  Definition              Value          Derivative Info.                !
 --------------------------------------------------------------------------------
 ! R1    R(1,2)                  1.0987         estimate D2E/DX2                !
 ! R2    R(2,3)                  1.5233         estimate D2E/DX2                !
 ! R3    R(2,6)                  1.0912         estimate D2E/DX2                !
 ! R4    R(2,7)                  1.0927         estimate D2E/DX2                !
 ! R5    R(3,4)                  1.2568         Frozen                          !
 ! R6    R(3,5)                  1.5278         estimate D2E/DX2                !
 ! R7    R(3,8)                  1.7252         Frozen                          !
 ! R8    R(5,22)                 1.398          estimate D2E/DX2                !
 ! R9    R(5,23)                 1.407          estimate D2E/DX2                !
 ! R10   R(8,44)                 1.8019         Frozen                          !
 ! R11   R(9,44)                 1.6524         estimate D2E/DX2                !
 ! R12   R(10,12)                1.4782         estimate D2E/DX2                !
 ! R13   R(10,13)                1.019          estimate D2E/DX2                !
 ! R14   R(10,14)                1.0295         estimate D2E/DX2                !
 ! R15   R(10,44)                2.166          estimate D2E/DX2                !
 ! R16   R(11,15)                1.48           estimate D2E/DX2                !
 ! R17   R(11,16)                1.0199         estimate D2E/DX2                !
 ! R18   R(11,17)                1.0166         estimate D2E/DX2                !
 ! R19   R(11,44)                2.1967         estimate D2E/DX2                !
 ! R20   R(12,15)                1.537          estimate D2E/DX2                !
 ! R21   R(12,18)                1.5465         estimate D2E/DX2                !
 ! R22   R(12,19)                1.553          estimate D2E/DX2                !
 ! R23   R(15,20)                1.5302         estimate D2E/DX2                !
 ! R24   R(15,21)                1.5739         estimate D2E/DX2                !
 ! R25   R(18,32)                1.0946         estimate D2E/DX2                !
 ! R26   R(18,33)                1.0946         estimate D2E/DX2                !
 ! R27   R(18,34)                1.0983         estimate D2E/DX2                !
 ! R28   R(19,35)                1.0921         estimate D2E/DX2                !
 ! R29   R(19,36)                1.1361         estimate D2E/DX2                !
 ! R30   R(19,37)                1.0894         estimate D2E/DX2                !
 ! R31   R(20,38)                1.1128         estimate D2E/DX2                !
 ! R32   R(20,39)                1.0947         estimate D2E/DX2                !
 ! R33   R(20,40)                1.0948         estimate D2E/DX2                !
 ! R34   R(21,41)                1.0935         estimate D2E/DX2                !
 ! R35   R(21,42)                1.094          estimate D2E/DX2                !
 ! R36   R(21,43)                1.095          estimate D2E/DX2                !
 ! R37   R(22,26)                1.4001         estimate D2E/DX2                !
 ! R38   R(22,27)                1.09           estimate D2E/DX2                !
 ! R39   R(23,25)                1.395          estimate D2E/DX2                !
 ! R40   R(23,31)                1.0914         estimate D2E/DX2                !
 ! R41   R(24,25)                1.4013         estimate D2E/DX2                !
 ! R42   R(24,26)                1.3967         estimate D2E/DX2                !
 ! R43   R(24,29)                1.0865         estimate D2E/DX2                !
 ! R44   R(25,30)                1.0878         estimate D2E/DX2                !
 ! R45   R(26,28)                1.0869         estimate D2E/DX2                !
 ! R46   R(44,45)                2.2679         estimate D2E/DX2                !
 ! R47   R(44,46)                2.2715         estimate D2E/DX2                !
 ! R48   R(45,47)                1.8552         estimate D2E/DX2                !
 ! R49   R(45,48)                1.8502         estimate D2E/DX2                !
 ! R50   R(45,49)                1.8546         estimate D2E/DX2                !
 ! R51   R(46,50)                1.8515         estimate D2E/DX2                !
 ! R52   R(46,51)                1.8461         estimate D2E/DX2                !
 ! R53   R(46,52)                1.8583         estimate D2E/DX2                !
 ! R54   R(47,83)                1.3994         estimate D2E/DX2                !
 ! R55   R(47,84)                1.4014         estimate D2E/DX2                !
 ! R56   R(48,93)                1.4012         estimate D2E/DX2                !
 ! R57   R(48,94)                1.3958         estimate D2E/DX2                !
 ! R58   R(49,53)                1.3884         estimate D2E/DX2                !
 ! R59   R(49,54)                1.4204         estimate D2E/DX2                !
 ! R60   R(50,103)               1.3994         estimate D2E/DX2                !
 ! R61   R(50,104)               1.4048         estimate D2E/DX2                !
 ! R62   R(51,113)               1.401          estimate D2E/DX2                !
 ! R63   R(51,114)               1.3921         estimate D2E/DX2                !
 ! R64   R(52,55)                1.3906         estimate D2E/DX2                !
 ! R65   R(52,56)                1.4193         estimate D2E/DX2                !
 ! R66   R(53,55)                1.5042         estimate D2E/DX2                !
 ! R67   R(53,57)                1.4374         estimate D2E/DX2                !
 ! R68   R(54,58)                1.3672         estimate D2E/DX2                !
 ! R69   R(54,59)                1.0846         estimate D2E/DX2                !
 ! R70   R(55,60)                1.4378         estimate D2E/DX2                !
 ! R71   R(56,61)                1.3676         estimate D2E/DX2                !
 ! R72   R(56,62)                1.0829         estimate D2E/DX2                !
 ! R73   R(57,63)                1.4219         estimate D2E/DX2                !
 ! R74   R(57,64)                1.4227         estimate D2E/DX2                !
 ! R75   R(58,63)                1.4166         estimate D2E/DX2                !
 ! R76   R(58,65)                1.0872         estimate D2E/DX2                !
 ! R77   R(60,66)                1.4215         estimate D2E/DX2                !
 ! R78   R(60,67)                1.4237         estimate D2E/DX2                !
 ! R79   R(61,66)                1.4151         estimate D2E/DX2                !
 ! R80   R(61,68)                1.0871         estimate D2E/DX2                !
 ! R81   R(63,69)                1.4196         estimate D2E/DX2                !
 ! R82   R(64,70)                1.3723         estimate D2E/DX2                !
 ! R83   R(64,71)                1.0845         estimate D2E/DX2                !
 ! R84   R(66,72)                1.4206         estimate D2E/DX2                !
 ! R85   R(67,73)                1.3716         estimate D2E/DX2                !
 ! R86   R(67,74)                1.0839         estimate D2E/DX2                !
 ! R87   R(69,75)                1.371          estimate D2E/DX2                !
 ! R88   R(69,76)                1.0872         estimate D2E/DX2                !
 ! R89   R(70,75)                1.4139         estimate D2E/DX2                !
 ! R90   R(70,77)                1.0863         estimate D2E/DX2                !
 ! R91   R(72,78)                1.3705         estimate D2E/DX2                !
 ! R92   R(72,79)                1.0872         estimate D2E/DX2                !
 ! R93   R(73,78)                1.4141         estimate D2E/DX2                !
 ! R94   R(73,80)                1.0863         estimate D2E/DX2                !
 ! R95   R(75,81)                1.0862         estimate D2E/DX2                !
 ! R96   R(78,82)                1.0862         estimate D2E/DX2                !
 ! R97   R(83,85)                1.3948         estimate D2E/DX2                !
 ! R98   R(83,86)                1.084          estimate D2E/DX2                !
 ! R99   R(84,87)                1.3906         estimate D2E/DX2                !
 ! R100  R(84,88)                1.0838         estimate D2E/DX2                !
 ! R101  R(85,89)                1.3918         estimate D2E/DX2                !
 ! R102  R(85,90)                1.0865         estimate D2E/DX2                !
 ! R103  R(87,89)                1.3936         estimate D2E/DX2                !
 ! R104  R(87,91)                1.0865         estimate D2E/DX2                !
 ! R105  R(89,92)                1.0864         estimate D2E/DX2                !
 ! R106  R(93,95)                1.3907         estimate D2E/DX2                !
 ! R107  R(93,96)                1.0873         estimate D2E/DX2                !
 ! R108  R(94,97)                1.394          estimate D2E/DX2                !
 ! R109  R(94,98)                1.0854         estimate D2E/DX2                !
 ! R110  R(95,99)                1.3938         estimate D2E/DX2                !
 ! R111  R(95,100)               1.0862         estimate D2E/DX2                !
 ! R112  R(97,99)                1.3922         estimate D2E/DX2                !
 ! R113  R(97,101)               1.0866         estimate D2E/DX2                !
 ! R114  R(99,102)               1.0864         estimate D2E/DX2                !
 ! R115  R(103,105)              1.3951         estimate D2E/DX2                !
 ! R116  R(103,106)              1.0848         estimate D2E/DX2                !
 ! R117  R(104,107)              1.3916         estimate D2E/DX2                !
 ! R118  R(104,108)              1.086          estimate D2E/DX2                !
 ! R119  R(105,109)              1.3908         estimate D2E/DX2                !
 ! R120  R(105,110)              1.0865         estimate D2E/DX2                !
 ! R121  R(107,109)              1.3944         estimate D2E/DX2                !
 ! R122  R(107,111)              1.0864         estimate D2E/DX2                !
 ! R123  R(109,112)              1.0862         estimate D2E/DX2                !
 ! R124  R(113,115)              1.3907         estimate D2E/DX2                !
 ! R125  R(113,116)              1.0876         estimate D2E/DX2                !
 ! R126  R(114,117)              1.3937         estimate D2E/DX2                !
 ! R127  R(114,118)              1.0849         estimate D2E/DX2                !
 ! R128  R(115,119)              1.396          estimate D2E/DX2                !
 ! R129  R(115,120)              1.0864         estimate D2E/DX2                !
 ! R130  R(117,119)              1.3914         estimate D2E/DX2                !
 ! R131  R(117,121)              1.0865         estimate D2E/DX2                !
 ! R132  R(119,122)              1.0864         estimate D2E/DX2                !
 ! A1    A(1,2,3)              106.7293         estimate D2E/DX2                !
 ! A2    A(1,2,6)              107.6803         estimate D2E/DX2                !
 ! A3    A(1,2,7)              108.2993         estimate D2E/DX2                !
 ! A4    A(3,2,6)              113.1233         estimate D2E/DX2                !
 ! A5    A(3,2,7)              111.4148         estimate D2E/DX2                !
 ! A6    A(6,2,7)              109.3855         estimate D2E/DX2                !
 ! A7    A(2,3,4)              118.2381         estimate D2E/DX2                !
 ! A8    A(2,3,5)              105.7498         estimate D2E/DX2                !
 ! A9    A(2,3,8)               94.5162         estimate D2E/DX2                !
 ! A10   A(4,3,5)              121.1049         estimate D2E/DX2                !
 ! A11   A(4,3,8)              106.8553         estimate D2E/DX2                !
 ! A12   A(5,3,8)              106.5357         estimate D2E/DX2                !
 ! A13   A(3,5,22)             122.4821         estimate D2E/DX2                !
 ! A14   A(3,5,23)             117.9182         estimate D2E/DX2                !
 ! A15   A(22,5,23)            119.3163         estimate D2E/DX2                !
 ! A16   A(3,8,44)             147.7296         estimate D2E/DX2                !
 ! A17   A(12,10,13)           109.1882         estimate D2E/DX2                !
 ! A18   A(12,10,14)           109.8641         estimate D2E/DX2                !
 ! A19   A(12,10,44)           110.1349         estimate D2E/DX2                !
 ! A20   A(13,10,14)           107.0766         estimate D2E/DX2                !
 ! A21   A(13,10,44)           115.1165         estimate D2E/DX2                !
 ! A22   A(14,10,44)           105.2832         estimate D2E/DX2                !
 ! A23   A(15,11,16)           108.4729         estimate D2E/DX2                !
 ! A24   A(15,11,17)           109.6245         estimate D2E/DX2                !
 ! A25   A(15,11,44)           112.9178         estimate D2E/DX2                !
 ! A26   A(16,11,17)           105.5862         estimate D2E/DX2                !
 ! A27   A(16,11,44)           112.9803         estimate D2E/DX2                !
 ! A28   A(17,11,44)           106.9647         estimate D2E/DX2                !
 ! A29   A(10,12,15)           106.6789         estimate D2E/DX2                !
 ! A30   A(10,12,18)           110.8459         estimate D2E/DX2                !
 ! A31   A(10,12,19)           106.1898         estimate D2E/DX2                !
 ! A32   A(15,12,18)           112.3583         estimate D2E/DX2                !
 ! A33   A(15,12,19)           112.3934         estimate D2E/DX2                !
 ! A34   A(18,12,19)           108.2135         estimate D2E/DX2                !
 ! A35   A(11,15,12)           109.4469         estimate D2E/DX2                !
 ! A36   A(11,15,20)           114.6022         estimate D2E/DX2                !
 ! A37   A(11,15,21)           106.9031         estimate D2E/DX2                !
 ! A38   A(12,15,20)           112.2367         estimate D2E/DX2                !
 ! A39   A(12,15,21)           109.1            estimate D2E/DX2                !
 ! A40   A(20,15,21)           104.1769         estimate D2E/DX2                !
 ! A41   A(12,18,32)           111.6163         estimate D2E/DX2                !
 ! A42   A(12,18,33)           111.2583         estimate D2E/DX2                !
 ! A43   A(12,18,34)           112.0354         estimate D2E/DX2                !
 ! A44   A(32,18,33)           107.2053         estimate D2E/DX2                !
 ! A45   A(32,18,34)           107.0318         estimate D2E/DX2                !
 ! A46   A(33,18,34)           107.4273         estimate D2E/DX2                !
 ! A47   A(12,19,35)           111.7725         estimate D2E/DX2                !
 ! A48   A(12,19,36)           108.9606         estimate D2E/DX2                !
 ! A49   A(12,19,37)           112.8011         estimate D2E/DX2                !
 ! A50   A(35,19,36)           106.8057         estimate D2E/DX2                !
 ! A51   A(35,19,37)           107.5824         estimate D2E/DX2                !
 ! A52   A(36,19,37)           108.7046         estimate D2E/DX2                !
 ! A53   A(15,20,38)           112.2163         estimate D2E/DX2                !
 ! A54   A(15,20,39)           111.9543         estimate D2E/DX2                !
 ! A55   A(15,20,40)           112.4867         estimate D2E/DX2                !
 ! A56   A(38,20,39)           105.2982         estimate D2E/DX2                !
 ! A57   A(38,20,40)           108.0061         estimate D2E/DX2                !
 ! A58   A(39,20,40)           106.4373         estimate D2E/DX2                !
 ! A59   A(15,21,41)           112.6761         estimate D2E/DX2                !
 ! A60   A(15,21,42)           110.9397         estimate D2E/DX2                !
 ! A61   A(15,21,43)           110.8487         estimate D2E/DX2                !
 ! A62   A(41,21,42)           108.1059         estimate D2E/DX2                !
 ! A63   A(41,21,43)           107.0703         estimate D2E/DX2                !
 ! A64   A(42,21,43)           106.9455         estimate D2E/DX2                !
 ! A65   A(5,22,26)            120.3737         estimate D2E/DX2                !
 ! A66   A(5,22,27)            119.2212         estimate D2E/DX2                !
 ! A67   A(26,22,27)           120.4019         estimate D2E/DX2                !
 ! A68   A(5,23,25)            120.2801         estimate D2E/DX2                !
 ! A69   A(5,23,31)            118.9442         estimate D2E/DX2                !
 ! A70   A(25,23,31)           120.774          estimate D2E/DX2                !
 ! A71   A(25,24,26)           119.7708         estimate D2E/DX2                !
 ! A72   A(25,24,29)           119.9919         estimate D2E/DX2                !
 ! A73   A(26,24,29)           120.236          estimate D2E/DX2                !
 ! A74   A(23,25,24)           120.1308         estimate D2E/DX2                !
 ! A75   A(23,25,30)           119.9874         estimate D2E/DX2                !
 ! A76   A(24,25,30)           119.8812         estimate D2E/DX2                !
 ! A77   A(22,26,24)           120.119          estimate D2E/DX2                !
 ! A78   A(22,26,28)           119.8648         estimate D2E/DX2                !
 ! A79   A(24,26,28)           120.0137         estimate D2E/DX2                !
 ! A80   A(8,44,10)             85.3421         estimate D2E/DX2                !
 ! A81   A(8,44,11)             87.1933         estimate D2E/DX2                !
 ! A82   A(8,44,45)             97.7602         estimate D2E/DX2                !
 ! A83   A(8,44,46)             97.4034         estimate D2E/DX2                !
 ! A84   A(9,44,10)             88.7014         estimate D2E/DX2                !
 ! A85   A(9,44,11)             85.1918         estimate D2E/DX2                !
 ! A86   A(9,44,45)             89.2711         estimate D2E/DX2                !
 ! A87   A(9,44,46)             87.5241         estimate D2E/DX2                !
 ! A88   A(10,44,11)            77.3746         estimate D2E/DX2                !
 ! A89   A(10,44,45)            95.8752         estimate D2E/DX2                !
 ! A90   A(11,44,46)            94.0028         estimate D2E/DX2                !
 ! A91   A(45,44,46)            92.4046         estimate D2E/DX2                !
 ! A92   A(44,45,47)           112.8434         estimate D2E/DX2                !
 ! A93   A(44,45,48)           122.4221         estimate D2E/DX2                !
 ! A94   A(44,45,49)           112.8686         estimate D2E/DX2                !
 ! A95   A(47,45,48)           101.2011         estimate D2E/DX2                !
 ! A96   A(47,45,49)           105.1497         estimate D2E/DX2                !
 ! A97   A(48,45,49)           100.2694         estimate D2E/DX2                !
 ! A98   A(44,46,50)           107.1183         estimate D2E/DX2                !
 ! A99   A(44,46,51)           124.8686         estimate D2E/DX2                !
 ! A100  A(44,46,52)           115.8214         estimate D2E/DX2                !
 ! A101  A(50,46,51)           101.7996         estimate D2E/DX2                !
 ! A102  A(50,46,52)           107.2009         estimate D2E/DX2                !
 ! A103  A(51,46,52)            98.242          estimate D2E/DX2                !
 ! A104  A(45,47,83)           124.7883         estimate D2E/DX2                !
 ! A105  A(45,47,84)           116.9603         estimate D2E/DX2                !
 ! A106  A(83,47,84)           118.0424         estimate D2E/DX2                !
 ! A107  A(45,48,93)           119.7024         estimate D2E/DX2                !
 ! A108  A(45,48,94)           121.7278         estimate D2E/DX2                !
 ! A109  A(93,48,94)           118.5652         estimate D2E/DX2                !
 ! A110  A(45,49,53)           120.4701         estimate D2E/DX2                !
 ! A111  A(45,49,54)           119.2915         estimate D2E/DX2                !
 ! A112  A(53,49,54)           119.6346         estimate D2E/DX2                !
 ! A113  A(46,50,103)          120.7257         estimate D2E/DX2                !
 ! A114  A(46,50,104)          119.8718         estimate D2E/DX2                !
 ! A115  A(103,50,104)         117.9755         estimate D2E/DX2                !
 ! A116  A(46,51,113)          121.3417         estimate D2E/DX2                !
 ! A117  A(46,51,114)          119.6256         estimate D2E/DX2                !
 ! A118  A(113,51,114)         118.9087         estimate D2E/DX2                !
 ! A119  A(46,52,55)           120.0056         estimate D2E/DX2                !
 ! A120  A(46,52,56)           120.5069         estimate D2E/DX2                !
 ! A121  A(55,52,56)           119.3412         estimate D2E/DX2                !
 ! A122  A(49,53,55)           122.9171         estimate D2E/DX2                !
 ! A123  A(49,53,57)           119.5778         estimate D2E/DX2                !
 ! A124  A(55,53,57)           117.4804         estimate D2E/DX2                !
 ! A125  A(49,54,58)           121.5001         estimate D2E/DX2                !
 ! A126  A(49,54,59)           119.4984         estimate D2E/DX2                !
 ! A127  A(58,54,59)           119.0005         estimate D2E/DX2                !
 ! A128  A(52,55,53)           123.3267         estimate D2E/DX2                !
 ! A129  A(52,55,60)           119.6839         estimate D2E/DX2                !
 ! A130  A(53,55,60)           116.9647         estimate D2E/DX2                !
 ! A131  A(52,56,61)           121.6738         estimate D2E/DX2                !
 ! A132  A(52,56,62)           119.7841         estimate D2E/DX2                !
 ! A133  A(61,56,62)           118.5402         estimate D2E/DX2                !
 ! A134  A(53,57,63)           119.7701         estimate D2E/DX2                !
 ! A135  A(53,57,64)           122.3066         estimate D2E/DX2                !
 ! A136  A(63,57,64)           117.9066         estimate D2E/DX2                !
 ! A137  A(54,58,63)           120.5298         estimate D2E/DX2                !
 ! A138  A(54,58,65)           120.3241         estimate D2E/DX2                !
 ! A139  A(63,58,65)           119.1458         estimate D2E/DX2                !
 ! A140  A(55,60,66)           119.7649         estimate D2E/DX2                !
 ! A141  A(55,60,67)           122.4673         estimate D2E/DX2                !
 ! A142  A(66,60,67)           117.7608         estimate D2E/DX2                !
 ! A143  A(56,61,66)           120.5528         estimate D2E/DX2                !
 ! A144  A(56,61,68)           120.2588         estimate D2E/DX2                !
 ! A145  A(66,61,68)           119.1844         estimate D2E/DX2                !
 ! A146  A(57,63,58)           118.9645         estimate D2E/DX2                !
 ! A147  A(57,63,69)           119.8296         estimate D2E/DX2                !
 ! A148  A(58,63,69)           121.196          estimate D2E/DX2                !
 ! A149  A(57,64,70)           121.0988         estimate D2E/DX2                !
 ! A150  A(57,64,71)           119.4763         estimate D2E/DX2                !
 ! A151  A(70,64,71)           119.4132         estimate D2E/DX2                !
 ! A152  A(60,66,61)           118.9039         estimate D2E/DX2                !
 ! A153  A(60,66,72)           119.8829         estimate D2E/DX2                !
 ! A154  A(61,66,72)           121.2084         estimate D2E/DX2                !
 ! A155  A(60,67,73)           121.2231         estimate D2E/DX2                !
 ! A156  A(60,67,74)           119.5712         estimate D2E/DX2                !
 ! A157  A(73,67,74)           119.1993         estimate D2E/DX2                !
 ! A158  A(63,69,75)           120.7483         estimate D2E/DX2                !
 ! A159  A(63,69,76)           118.5216         estimate D2E/DX2                !
 ! A160  A(75,69,76)           120.7282         estimate D2E/DX2                !
 ! A161  A(64,70,75)           120.6706         estimate D2E/DX2                !
 ! A162  A(64,70,77)           119.6874         estimate D2E/DX2                !
 ! A163  A(75,70,77)           119.6403         estimate D2E/DX2                !
 ! A164  A(66,72,78)           120.7613         estimate D2E/DX2                !
 ! A165  A(66,72,79)           118.5072         estimate D2E/DX2                !
 ! A166  A(78,72,79)           120.7304         estimate D2E/DX2                !
 ! A167  A(67,73,78)           120.6464         estimate D2E/DX2                !
 ! A168  A(67,73,80)           119.6999         estimate D2E/DX2                !
 ! A169  A(78,73,80)           119.6473         estimate D2E/DX2                !
 ! A170  A(69,75,70)           119.7407         estimate D2E/DX2                !
 ! A171  A(69,75,81)           120.3966         estimate D2E/DX2                !
 ! A172  A(70,75,81)           119.8615         estimate D2E/DX2                !
 ! A173  A(72,78,73)           119.7152         estimate D2E/DX2                !
 ! A174  A(72,78,82)           120.4066         estimate D2E/DX2                !
 ! A175  A(73,78,82)           119.8782         estimate D2E/DX2                !
 ! A176  A(47,83,85)           120.7152         estimate D2E/DX2                !
 ! A177  A(47,83,86)           120.73           estimate D2E/DX2                !
 ! A178  A(85,83,86)           118.5523         estimate D2E/DX2                !
 ! A179  A(47,84,87)           121.3684         estimate D2E/DX2                !
 ! A180  A(47,84,88)           119.3784         estimate D2E/DX2                !
 ! A181  A(87,84,88)           119.2274         estimate D2E/DX2                !
 ! A182  A(83,85,89)           120.5006         estimate D2E/DX2                !
 ! A183  A(83,85,90)           119.3712         estimate D2E/DX2                !
 ! A184  A(89,85,90)           120.1279         estimate D2E/DX2                !
 ! A185  A(84,87,89)           119.9543         estimate D2E/DX2                !
 ! A186  A(84,87,91)           119.5191         estimate D2E/DX2                !
 ! A187  A(89,87,91)           120.5194         estimate D2E/DX2                !
 ! A188  A(85,89,87)           119.3966         estimate D2E/DX2                !
 ! A189  A(85,89,92)           120.2757         estimate D2E/DX2                !
 ! A190  A(87,89,92)           120.3235         estimate D2E/DX2                !
 ! A191  A(48,93,95)           120.8821         estimate D2E/DX2                !
 ! A192  A(48,93,96)           119.9499         estimate D2E/DX2                !
 ! A193  A(95,93,96)           119.1634         estimate D2E/DX2                !
 ! A194  A(48,94,97)           120.6851         estimate D2E/DX2                !
 ! A195  A(48,94,98)           119.3042         estimate D2E/DX2                !
 ! A196  A(97,94,98)           119.9885         estimate D2E/DX2                !
 ! A197  A(93,95,99)           120.0186         estimate D2E/DX2                !
 ! A198  A(93,95,100)          119.7519         estimate D2E/DX2                !
 ! A199  A(99,95,100)          120.2143         estimate D2E/DX2                !
 ! A200  A(94,97,99)           120.224          estimate D2E/DX2                !
 ! A201  A(94,97,101)          119.6336         estimate D2E/DX2                !
 ! A202  A(99,97,101)          120.1413         estimate D2E/DX2                !
 ! A203  A(95,99,97)           119.6089         estimate D2E/DX2                !
 ! A204  A(95,99,102)          120.1471         estimate D2E/DX2                !
 ! A205  A(97,99,102)          120.2438         estimate D2E/DX2                !
 ! A206  A(50,103,105)         120.9564         estimate D2E/DX2                !
 ! A207  A(50,103,106)         120.3651         estimate D2E/DX2                !
 ! A208  A(105,103,106)        118.6706         estimate D2E/DX2                !
 ! A209  A(50,104,107)         121.0931         estimate D2E/DX2                !
 ! A210  A(50,104,108)         119.9687         estimate D2E/DX2                !
 ! A211  A(107,104,108)        118.8905         estimate D2E/DX2                !
 ! A212  A(103,105,109)        120.3895         estimate D2E/DX2                !
 ! A213  A(103,105,110)        119.4259         estimate D2E/DX2                !
 ! A214  A(109,105,110)        120.184          estimate D2E/DX2                !
 ! A215  A(104,107,109)        120.1908         estimate D2E/DX2                !
 ! A216  A(104,107,111)        119.5645         estimate D2E/DX2                !
 ! A217  A(109,107,111)        120.2329         estimate D2E/DX2                !
 ! A218  A(105,109,107)        119.3706         estimate D2E/DX2                !
 ! A219  A(105,109,112)        120.3604         estimate D2E/DX2                !
 ! A220  A(107,109,112)        120.2651         estimate D2E/DX2                !
 ! A221  A(51,113,115)         120.459          estimate D2E/DX2                !
 ! A222  A(51,113,116)         120.078          estimate D2E/DX2                !
 ! A223  A(115,113,116)        119.4629         estimate D2E/DX2                !
 ! A224  A(51,114,117)         120.8613         estimate D2E/DX2                !
 ! A225  A(51,114,118)         118.702          estimate D2E/DX2                !
 ! A226  A(117,114,118)        120.4082         estimate D2E/DX2                !
 ! A227  A(113,115,119)        120.0902         estimate D2E/DX2                !
 ! A228  A(113,115,120)        119.8158         estimate D2E/DX2                !
 ! A229  A(119,115,120)        120.0886         estimate D2E/DX2                !
 ! A230  A(114,117,119)        119.8735         estimate D2E/DX2                !
 ! A231  A(114,117,121)        119.7726         estimate D2E/DX2                !
 ! A232  A(119,117,121)        120.3458         estimate D2E/DX2                !
 ! A233  A(115,119,117)        119.7919         estimate D2E/DX2                !
 ! A234  A(115,119,122)        120.0334         estimate D2E/DX2                !
 ! A235  A(117,119,122)        120.1707         estimate D2E/DX2                !
 ! A236  L(8,44,9,10,-1)       174.0435         estimate D2E/DX2                !
 ! A237  L(10,44,46,8,-1)      182.7454         estimate D2E/DX2                !
 ! A238  L(11,44,45,8,-1)      184.9535         estimate D2E/DX2                !
 ! A239  L(8,44,9,10,-2)       173.5237         estimate D2E/DX2                !
 ! A240  L(10,44,46,8,-2)      188.7733         estimate D2E/DX2                !
 ! A241  L(11,44,45,8,-2)      172.8612         estimate D2E/DX2                !
 ! D1    D(1,2,3,4)            -65.7514         estimate D2E/DX2                !
 ! D2    D(1,2,3,5)             73.7772         estimate D2E/DX2                !
 ! D3    D(1,2,3,8)           -177.6256         estimate D2E/DX2                !
 ! D4    D(6,2,3,4)            176.0077         estimate D2E/DX2                !
 ! D5    D(6,2,3,5)            -44.4637         estimate D2E/DX2                !
 ! D6    D(6,2,3,8)             64.1334         estimate D2E/DX2                !
 ! D7    D(7,2,3,4)             52.2863         estimate D2E/DX2                !
 ! D8    D(7,2,3,5)           -168.1851         estimate D2E/DX2                !
 ! D9    D(7,2,3,8)            -59.5879         estimate D2E/DX2                !
 ! D10   D(2,3,5,22)            77.635          estimate D2E/DX2                !
 ! D11   D(2,3,5,23)           -96.2032         estimate D2E/DX2                !
 ! D12   D(4,3,5,22)          -144.2657         estimate D2E/DX2                !
 ! D13   D(4,3,5,23)            41.8961         estimate D2E/DX2                !
 ! D14   D(8,3,5,22)           -22.0989         estimate D2E/DX2                !
 ! D15   D(8,3,5,23)           164.0629         estimate D2E/DX2                !
 ! D16   D(2,3,8,44)           161.4581         estimate D2E/DX2                !
 ! D17   D(4,3,8,44)            40.1362         estimate D2E/DX2                !
 ! D18   D(5,3,8,44)           -90.6345         estimate D2E/DX2                !
 ! D19   D(3,5,22,26)         -174.8725         estimate D2E/DX2                !
 ! D20   D(3,5,22,27)            4.4821         estimate D2E/DX2                !
 ! D21   D(23,5,22,26)          -1.1172         estimate D2E/DX2                !
 ! D22   D(23,5,22,27)         178.2373         estimate D2E/DX2                !
 ! D23   D(3,5,23,25)          175.0878         estimate D2E/DX2                !
 ! D24   D(3,5,23,31)           -5.397          estimate D2E/DX2                !
 ! D25   D(22,5,23,25)           1.0484         estimate D2E/DX2                !
 ! D26   D(22,5,23,31)        -179.4364         estimate D2E/DX2                !
 ! D27   D(3,8,44,10)          -24.7366         estimate D2E/DX2                !
 ! D28   D(3,8,44,11)           52.8145         estimate D2E/DX2                !
 ! D29   D(3,8,44,45)         -120.0467         estimate D2E/DX2                !
 ! D30   D(3,8,44,46)          146.4901         estimate D2E/DX2                !
 ! D31   D(13,10,12,15)       -177.2221         estimate D2E/DX2                !
 ! D32   D(13,10,12,18)         60.1619         estimate D2E/DX2                !
 ! D33   D(13,10,12,19)        -57.1489         estimate D2E/DX2                !
 ! D34   D(14,10,12,15)         65.6278         estimate D2E/DX2                !
 ! D35   D(14,10,12,18)        -56.9882         estimate D2E/DX2                !
 ! D36   D(14,10,12,19)       -174.299          estimate D2E/DX2                !
 ! D37   D(44,10,12,15)        -49.9013         estimate D2E/DX2                !
 ! D38   D(44,10,12,18)       -172.5173         estimate D2E/DX2                !
 ! D39   D(44,10,12,19)         70.1719         estimate D2E/DX2                !
 ! D40   D(12,10,44,8)         115.8142         estimate D2E/DX2                !
 ! D41   D(12,10,44,9)         -57.7095         estimate D2E/DX2                !
 ! D42   D(12,10,44,11)         27.6535         estimate D2E/DX2                !
 ! D43   D(12,10,44,45)       -146.8429         estimate D2E/DX2                !
 ! D44   D(13,10,44,8)        -120.2337         estimate D2E/DX2                !
 ! D45   D(13,10,44,9)          66.2426         estimate D2E/DX2                !
 ! D46   D(13,10,44,11)        151.6056         estimate D2E/DX2                !
 ! D47   D(13,10,44,45)        -22.8908         estimate D2E/DX2                !
 ! D48   D(14,10,44,8)          -2.5686         estimate D2E/DX2                !
 ! D49   D(14,10,44,9)        -176.0923         estimate D2E/DX2                !
 ! D50   D(14,10,44,11)        -90.7293         estimate D2E/DX2                !
 ! D51   D(14,10,44,45)         94.7742         estimate D2E/DX2                !
 ! D52   D(12,10,46,50)          6.9206         estimate D2E/DX2                !
 ! D53   D(12,10,46,51)        122.3913         estimate D2E/DX2                !
 ! D54   D(12,10,46,52)       -110.6432         estimate D2E/DX2                !
 ! D55   D(13,10,46,50)        129.3025         estimate D2E/DX2                !
 ! D56   D(13,10,46,51)       -115.2269         estimate D2E/DX2                !
 ! D57   D(13,10,46,52)         11.7387         estimate D2E/DX2                !
 ! D58   D(14,10,46,50)       -109.9875         estimate D2E/DX2                !
 ! D59   D(14,10,46,51)          5.4832         estimate D2E/DX2                !
 ! D60   D(14,10,46,52)        132.4487         estimate D2E/DX2                !
 ! D61   D(16,11,15,12)       -153.1515         estimate D2E/DX2                !
 ! D62   D(16,11,15,20)        -26.0616         estimate D2E/DX2                !
 ! D63   D(16,11,15,21)         88.8156         estimate D2E/DX2                !
 ! D64   D(17,11,15,12)         92.022          estimate D2E/DX2                !
 ! D65   D(17,11,15,20)       -140.8881         estimate D2E/DX2                !
 ! D66   D(17,11,15,21)        -26.0108         estimate D2E/DX2                !
 ! D67   D(44,11,15,12)        -27.1264         estimate D2E/DX2                !
 ! D68   D(44,11,15,20)         99.9635         estimate D2E/DX2                !
 ! D69   D(44,11,15,21)       -145.1593         estimate D2E/DX2                !
 ! D70   D(15,11,44,8)         -85.4427         estimate D2E/DX2                !
 ! D71   D(15,11,44,9)          90.1533         estimate D2E/DX2                !
 ! D72   D(15,11,44,10)          0.4091         estimate D2E/DX2                !
 ! D73   D(15,11,44,46)        177.325          estimate D2E/DX2                !
 ! D74   D(16,11,44,8)          38.1273         estimate D2E/DX2                !
 ! D75   D(16,11,44,9)        -146.2768         estimate D2E/DX2                !
 ! D76   D(16,11,44,10)        123.979          estimate D2E/DX2                !
 ! D77   D(16,11,44,46)        -59.1051         estimate D2E/DX2                !
 ! D78   D(17,11,44,8)         153.8802         estimate D2E/DX2                !
 ! D79   D(17,11,44,9)         -30.5238         estimate D2E/DX2                !
 ! D80   D(17,11,44,10)       -120.268          estimate D2E/DX2                !
 ! D81   D(17,11,44,46)         56.6479         estimate D2E/DX2                !
 ! D82   D(15,11,45,47)        -19.7603         estimate D2E/DX2                !
 ! D83   D(15,11,45,48)         97.6746         estimate D2E/DX2                !
 ! D84   D(15,11,45,49)       -140.2232         estimate D2E/DX2                !
 ! D85   D(16,11,45,47)        104.2859         estimate D2E/DX2                !
 ! D86   D(16,11,45,48)       -138.2792         estimate D2E/DX2                !
 ! D87   D(16,11,45,49)        -16.177          estimate D2E/DX2                !
 ! D88   D(17,11,45,47)       -138.0648         estimate D2E/DX2                !
 ! D89   D(17,11,45,48)        -20.6299         estimate D2E/DX2                !
 ! D90   D(17,11,45,49)        101.4723         estimate D2E/DX2                !
 ! D91   D(10,12,15,11)         50.0537         estimate D2E/DX2                !
 ! D92   D(10,12,15,20)        -78.3595         estimate D2E/DX2                !
 ! D93   D(10,12,15,21)        166.7059         estimate D2E/DX2                !
 ! D94   D(18,12,15,11)        171.7165         estimate D2E/DX2                !
 ! D95   D(18,12,15,20)         43.3032         estimate D2E/DX2                !
 ! D96   D(18,12,15,21)        -71.6313         estimate D2E/DX2                !
 ! D97   D(19,12,15,11)        -65.939          estimate D2E/DX2                !
 ! D98   D(19,12,15,20)        165.6477         estimate D2E/DX2                !
 ! D99   D(19,12,15,21)         50.7132         estimate D2E/DX2                !
 ! D100  D(10,12,18,32)        -65.7523         estimate D2E/DX2                !
 ! D101  D(10,12,18,33)        174.5407         estimate D2E/DX2                !
 ! D102  D(10,12,18,34)         54.2657         estimate D2E/DX2                !
 ! D103  D(15,12,18,32)        174.9927         estimate D2E/DX2                !
 ! D104  D(15,12,18,33)         55.2857         estimate D2E/DX2                !
 ! D105  D(15,12,18,34)        -64.9893         estimate D2E/DX2                !
 ! D106  D(19,12,18,32)         50.3121         estimate D2E/DX2                !
 ! D107  D(19,12,18,33)        -69.3949         estimate D2E/DX2                !
 ! D108  D(19,12,18,34)        170.3301         estimate D2E/DX2                !
 ! D109  D(10,12,19,35)         70.7463         estimate D2E/DX2                !
 ! D110  D(10,12,19,36)        -47.0559         estimate D2E/DX2                !
 ! D111  D(10,12,19,37)       -167.8703         estimate D2E/DX2                !
 ! D112  D(15,12,19,35)       -172.9671         estimate D2E/DX2                !
 ! D113  D(15,12,19,36)         69.2308         estimate D2E/DX2                !
 ! D114  D(15,12,19,37)        -51.5836         estimate D2E/DX2                !
 ! D115  D(18,12,19,35)        -48.3073         estimate D2E/DX2                !
 ! D116  D(18,12,19,36)       -166.1095         estimate D2E/DX2                !
 ! D117  D(18,12,19,37)         73.0761         estimate D2E/DX2                !
 ! D118  D(11,15,20,38)        -80.7058         estimate D2E/DX2                !
 ! D119  D(11,15,20,39)        161.1353         estimate D2E/DX2                !
 ! D120  D(11,15,20,40)         41.3299         estimate D2E/DX2                !
 ! D121  D(12,15,20,38)         44.9418         estimate D2E/DX2                !
 ! D122  D(12,15,20,39)        -73.2172         estimate D2E/DX2                !
 ! D123  D(12,15,20,40)        166.9774         estimate D2E/DX2                !
 ! D124  D(21,15,20,38)        162.8392         estimate D2E/DX2                !
 ! D125  D(21,15,20,39)         44.6802         estimate D2E/DX2                !
 ! D126  D(21,15,20,40)        -75.1251         estimate D2E/DX2                !
 ! D127  D(11,15,21,41)         54.5186         estimate D2E/DX2                !
 ! D128  D(11,15,21,42)        -66.8478         estimate D2E/DX2                !
 ! D129  D(11,15,21,43)        174.4886         estimate D2E/DX2                !
 ! D130  D(12,15,21,41)        -63.7411         estimate D2E/DX2                !
 ! D131  D(12,15,21,42)        174.8926         estimate D2E/DX2                !
 ! D132  D(12,15,21,43)         56.229          estimate D2E/DX2                !
 ! D133  D(20,15,21,41)        176.2236         estimate D2E/DX2                !
 ! D134  D(20,15,21,42)         54.8572         estimate D2E/DX2                !
 ! D135  D(20,15,21,43)        -63.8063         estimate D2E/DX2                !
 ! D136  D(5,22,26,24)           0.5029         estimate D2E/DX2                !
 ! D137  D(5,22,26,28)         179.9183         estimate D2E/DX2                !
 ! D138  D(27,22,26,24)       -178.844          estimate D2E/DX2                !
 ! D139  D(27,22,26,28)          0.5714         estimate D2E/DX2                !
 ! D140  D(5,23,25,24)          -0.3635         estimate D2E/DX2                !
 ! D141  D(5,23,25,30)         179.9178         estimate D2E/DX2                !
 ! D142  D(31,23,25,24)       -179.8697         estimate D2E/DX2                !
 ! D143  D(31,23,25,30)          0.4116         estimate D2E/DX2                !
 ! D144  D(26,24,25,23)         -0.2606         estimate D2E/DX2                !
 ! D145  D(26,24,25,30)        179.4584         estimate D2E/DX2                !
 ! D146  D(29,24,25,23)       -179.849          estimate D2E/DX2                !
 ! D147  D(29,24,25,30)         -0.13           estimate D2E/DX2                !
 ! D148  D(25,24,26,22)          0.193          estimate D2E/DX2                !
 ! D149  D(25,24,26,28)       -179.2216         estimate D2E/DX2                !
 ! D150  D(29,24,26,22)        179.7804         estimate D2E/DX2                !
 ! D151  D(29,24,26,28)          0.3658         estimate D2E/DX2                !
 ! D152  D(8,44,45,47)          64.6428         estimate D2E/DX2                !
 ! D153  D(8,44,45,48)        -174.2077         estimate D2E/DX2                !
 ! D154  D(8,44,45,49)         -54.399          estimate D2E/DX2                !
 ! D155  D(9,44,45,47)        -110.0564         estimate D2E/DX2                !
 ! D156  D(9,44,45,48)          11.093          estimate D2E/DX2                !
 ! D157  D(9,44,45,49)         130.9018         estimate D2E/DX2                !
 ! D158  D(10,44,45,47)        -21.437          estimate D2E/DX2                !
 ! D159  D(10,44,45,48)         99.7125         estimate D2E/DX2                !
 ! D160  D(10,44,45,49)       -140.4787         estimate D2E/DX2                !
 ! D161  D(46,44,45,47)        162.4525         estimate D2E/DX2                !
 ! D162  D(46,44,45,48)        -76.3981         estimate D2E/DX2                !
 ! D163  D(46,44,45,49)         43.4107         estimate D2E/DX2                !
 ! D164  D(8,44,46,50)        -107.7818         estimate D2E/DX2                !
 ! D165  D(8,44,46,51)          10.6034         estimate D2E/DX2                !
 ! D166  D(8,44,46,52)         132.6945         estimate D2E/DX2                !
 ! D167  D(9,44,46,50)          64.904          estimate D2E/DX2                !
 ! D168  D(9,44,46,51)        -176.7109         estimate D2E/DX2                !
 ! D169  D(9,44,46,52)         -54.6197         estimate D2E/DX2                !
 ! D170  D(11,44,46,50)        -20.0975         estimate D2E/DX2                !
 ! D171  D(11,44,46,51)         98.2877         estimate D2E/DX2                !
 ! D172  D(11,44,46,52)       -139.6212         estimate D2E/DX2                !
 ! D173  D(45,44,46,50)        154.0697         estimate D2E/DX2                !
 ! D174  D(45,44,46,51)        -87.5451         estimate D2E/DX2                !
 ! D175  D(45,44,46,52)         34.5461         estimate D2E/DX2                !
 ! D176  D(44,45,47,83)        131.5844         estimate D2E/DX2                !
 ! D177  D(44,45,47,84)        -43.0425         estimate D2E/DX2                !
 ! D178  D(48,45,47,83)         -0.9862         estimate D2E/DX2                !
 ! D179  D(48,45,47,84)       -175.613          estimate D2E/DX2                !
 ! D180  D(49,45,47,83)       -104.9847         estimate D2E/DX2                !
 ! D181  D(49,45,47,84)         80.3884         estimate D2E/DX2                !
 ! D182  D(44,45,48,93)        170.4098         estimate D2E/DX2                !
 ! D183  D(44,45,48,94)         -8.8076         estimate D2E/DX2                !
 ! D184  D(47,45,48,93)        -63.1053         estimate D2E/DX2                !
 ! D185  D(47,45,48,94)        117.6773         estimate D2E/DX2                !
 ! D186  D(49,45,48,93)         44.751          estimate D2E/DX2                !
 ! D187  D(49,45,48,94)       -134.4664         estimate D2E/DX2                !
 ! D188  D(44,45,49,53)        -72.595          estimate D2E/DX2                !
 ! D189  D(44,45,49,54)         98.4646         estimate D2E/DX2                !
 ! D190  D(47,45,49,53)        163.9902         estimate D2E/DX2                !
 ! D191  D(47,45,49,54)        -24.9502         estimate D2E/DX2                !
 ! D192  D(48,45,49,53)         59.3009         estimate D2E/DX2                !
 ! D193  D(48,45,49,54)       -129.6395         estimate D2E/DX2                !
 ! D194  D(44,46,50,103)       105.6108         estimate D2E/DX2                !
 ! D195  D(44,46,50,104)       -60.4828         estimate D2E/DX2                !
 ! D196  D(51,46,50,103)       -26.8784         estimate D2E/DX2                !
 ! D197  D(51,46,50,104)       167.028          estimate D2E/DX2                !
 ! D198  D(52,46,50,103)      -129.4686         estimate D2E/DX2                !
 ! D199  D(52,46,50,104)        64.4378         estimate D2E/DX2                !
 ! D200  D(44,46,51,113)      -171.6767         estimate D2E/DX2                !
 ! D201  D(44,46,51,114)        12.4162         estimate D2E/DX2                !
 ! D202  D(50,46,51,113)       -50.8753         estimate D2E/DX2                !
 ! D203  D(50,46,51,114)       133.2175         estimate D2E/DX2                !
 ! D204  D(52,46,51,113)        58.7288         estimate D2E/DX2                !
 ! D205  D(52,46,51,114)      -117.1783         estimate D2E/DX2                !
 ! D206  D(44,46,52,55)        -70.4815         estimate D2E/DX2                !
 ! D207  D(44,46,52,56)        105.0937         estimate D2E/DX2                !
 ! D208  D(50,46,52,55)        170.0399         estimate D2E/DX2                !
 ! D209  D(50,46,52,56)        -14.3849         estimate D2E/DX2                !
 ! D210  D(51,46,52,55)         64.9022         estimate D2E/DX2                !
 ! D211  D(51,46,52,56)       -119.5226         estimate D2E/DX2                !
 ! D212  D(45,47,83,85)       -175.8315         estimate D2E/DX2                !
 ! D213  D(45,47,83,86)          3.5904         estimate D2E/DX2                !
 ! D214  D(84,47,83,85)         -1.2579         estimate D2E/DX2                !
 ! D215  D(84,47,83,86)        178.164          estimate D2E/DX2                !
 ! D216  D(45,47,84,87)        176.7778         estimate D2E/DX2                !
 ! D217  D(45,47,84,88)         -1.3603         estimate D2E/DX2                !
 ! D218  D(83,47,84,87)          1.7766         estimate D2E/DX2                !
 ! D219  D(83,47,84,88)       -176.3615         estimate D2E/DX2                !
 ! D220  D(45,48,93,95)       -179.2898         estimate D2E/DX2                !
 ! D221  D(45,48,93,96)         -0.0779         estimate D2E/DX2                !
 ! D222  D(94,48,93,95)         -0.0477         estimate D2E/DX2                !
 ! D223  D(94,48,93,96)        179.1642         estimate D2E/DX2                !
 ! D224  D(45,48,94,97)        178.255          estimate D2E/DX2                !
 ! D225  D(45,48,94,98)         -0.0328         estimate D2E/DX2                !
 ! D226  D(93,48,94,97)         -0.971          estimate D2E/DX2                !
 ! D227  D(93,48,94,98)       -179.2588         estimate D2E/DX2                !
 ! D228  D(45,49,53,55)        -12.3994         estimate D2E/DX2                !
 ! D229  D(45,49,53,57)        169.4543         estimate D2E/DX2                !
 ! D230  D(54,49,53,55)        176.5716         estimate D2E/DX2                !
 ! D231  D(54,49,53,57)         -1.5747         estimate D2E/DX2                !
 ! D232  D(45,49,54,58)       -170.715          estimate D2E/DX2                !
 ! D233  D(45,49,54,59)          9.6535         estimate D2E/DX2                !
 ! D234  D(53,49,54,58)          0.4203         estimate D2E/DX2                !
 ! D235  D(53,49,54,59)       -179.2112         estimate D2E/DX2                !
 ! D236  D(46,50,103,105)     -167.3264         estimate D2E/DX2                !
 ! D237  D(46,50,103,106)       11.6361         estimate D2E/DX2                !
 ! D238  D(104,50,103,105)      -0.9758         estimate D2E/DX2                !
 ! D239  D(104,50,103,106)     177.9867         estimate D2E/DX2                !
 ! D240  D(46,50,104,107)      168.3171         estimate D2E/DX2                !
 ! D241  D(46,50,104,108)       -9.1437         estimate D2E/DX2                !
 ! D242  D(103,50,104,107)       1.846          estimate D2E/DX2                !
 ! D243  D(103,50,104,108)    -175.6149         estimate D2E/DX2                !
 ! D244  D(46,51,113,115)     -177.4596         estimate D2E/DX2                !
 ! D245  D(46,51,113,116)        2.6359         estimate D2E/DX2                !
 ! D246  D(114,51,113,115)      -1.5238         estimate D2E/DX2                !
 ! D247  D(114,51,113,116)     178.5716         estimate D2E/DX2                !
 ! D248  D(46,51,114,117)      177.031          estimate D2E/DX2                !
 ! D249  D(46,51,114,118)       -1.034          estimate D2E/DX2                !
 ! D250  D(113,51,114,117)       1.0241         estimate D2E/DX2                !
 ! D251  D(113,51,114,118)    -177.0409         estimate D2E/DX2                !
 ! D252  D(46,52,55,53)         -7.7462         estimate D2E/DX2                !
 ! D253  D(46,52,55,60)        174.1141         estimate D2E/DX2                !
 ! D254  D(56,52,55,53)        176.627          estimate D2E/DX2                !
 ! D255  D(56,52,55,60)         -1.5127         estimate D2E/DX2                !
 ! D256  D(46,52,56,61)       -172.8605         estimate D2E/DX2                !
 ! D257  D(46,52,56,62)          7.6518         estimate D2E/DX2                !
 ! D258  D(55,52,56,61)          2.7439         estimate D2E/DX2                !
 ! D259  D(55,52,56,62)       -176.7438         estimate D2E/DX2                !
 ! D260  D(49,53,55,52)         74.6489         estimate D2E/DX2                !
 ! D261  D(49,53,55,60)       -107.1644         estimate D2E/DX2                !
 ! D262  D(57,53,55,52)       -107.1683         estimate D2E/DX2                !
 ! D263  D(57,53,55,60)         71.0184         estimate D2E/DX2                !
 ! D264  D(49,53,57,63)          1.6159         estimate D2E/DX2                !
 ! D265  D(49,53,57,64)       -176.8664         estimate D2E/DX2                !
 ! D266  D(55,53,57,63)       -176.6301         estimate D2E/DX2                !
 ! D267  D(55,53,57,64)          4.8876         estimate D2E/DX2                !
 ! D268  D(49,54,58,63)          0.725          estimate D2E/DX2                !
 ! D269  D(49,54,58,65)       -179.4664         estimate D2E/DX2                !
 ! D270  D(59,54,58,63)       -179.6417         estimate D2E/DX2                !
 ! D271  D(59,54,58,65)          0.1669         estimate D2E/DX2                !
 ! D272  D(52,55,60,66)         -1.0903         estimate D2E/DX2                !
 ! D273  D(52,55,60,67)        179.891          estimate D2E/DX2                !
 ! D274  D(53,55,60,66)       -179.3463         estimate D2E/DX2                !
 ! D275  D(53,55,60,67)          1.6349         estimate D2E/DX2                !
 ! D276  D(52,56,61,66)         -1.2659         estimate D2E/DX2                !
 ! D277  D(52,56,61,68)        179.4669         estimate D2E/DX2                !
 ! D278  D(62,56,61,66)        178.228          estimate D2E/DX2                !
 ! D279  D(62,56,61,68)         -1.0392         estimate D2E/DX2                !
 ! D280  D(53,57,63,58)         -0.4933         estimate D2E/DX2                !
 ! D281  D(53,57,63,69)       -179.3624         estimate D2E/DX2                !
 ! D282  D(64,57,63,58)        178.0551         estimate D2E/DX2                !
 ! D283  D(64,57,63,69)         -0.814          estimate D2E/DX2                !
 ! D284  D(53,57,64,70)        178.9154         estimate D2E/DX2                !
 ! D285  D(53,57,64,71)          0.1686         estimate D2E/DX2                !
 ! D286  D(63,57,64,70)          0.4062         estimate D2E/DX2                !
 ! D287  D(63,57,64,71)       -178.3407         estimate D2E/DX2                !
 ! D288  D(54,58,63,57)         -0.6678         estimate D2E/DX2                !
 ! D289  D(54,58,63,69)        178.1852         estimate D2E/DX2                !
 ! D290  D(65,58,63,57)        179.5213         estimate D2E/DX2                !
 ! D291  D(65,58,63,69)         -1.6256         estimate D2E/DX2                !
 ! D292  D(55,60,66,61)          2.5448         estimate D2E/DX2                !
 ! D293  D(55,60,66,72)       -178.2413         estimate D2E/DX2                !
 ! D294  D(67,60,66,61)       -178.3908         estimate D2E/DX2                !
 ! D295  D(67,60,66,72)          0.8232         estimate D2E/DX2                !
 ! D296  D(55,60,67,73)        179.0911         estimate D2E/DX2                !
 ! D297  D(55,60,67,74)          0.0258         estimate D2E/DX2                !
 ! D298  D(66,60,67,73)          0.0536         estimate D2E/DX2                !
 ! D299  D(66,60,67,74)       -179.0116         estimate D2E/DX2                !
 ! D300  D(56,61,66,60)         -1.3879         estimate D2E/DX2                !
 ! D301  D(56,61,66,72)        179.4089         estimate D2E/DX2                !
 ! D302  D(68,61,66,60)        177.8871         estimate D2E/DX2                !
 ! D303  D(68,61,66,72)         -1.3161         estimate D2E/DX2                !
 ! D304  D(57,63,69,75)          0.5884         estimate D2E/DX2                !
 ! D305  D(57,63,69,76)       -179.9181         estimate D2E/DX2                !
 ! D306  D(58,63,69,75)       -178.2549         estimate D2E/DX2                !
 ! D307  D(58,63,69,76)          1.2386         estimate D2E/DX2                !
 ! D308  D(57,64,70,75)          0.245          estimate D2E/DX2                !
 ! D309  D(57,64,70,77)       -179.2749         estimate D2E/DX2                !
 ! D310  D(71,64,70,75)        178.9926         estimate D2E/DX2                !
 ! D311  D(71,64,70,77)         -0.5273         estimate D2E/DX2                !
 ! D312  D(60,66,72,78)         -0.987          estimate D2E/DX2                !
 ! D313  D(60,66,72,79)        179.4041         estimate D2E/DX2                !
 ! D314  D(61,66,72,78)        178.2085         estimate D2E/DX2                !
 ! D315  D(61,66,72,79)         -1.4004         estimate D2E/DX2                !
 ! D316  D(60,67,73,78)         -0.7931         estimate D2E/DX2                !
 ! D317  D(60,67,73,80)       -179.8666         estimate D2E/DX2                !
 ! D318  D(74,67,73,78)        178.2756         estimate D2E/DX2                !
 ! D319  D(74,67,73,80)         -0.798          estimate D2E/DX2                !
 ! D320  D(63,69,75,70)          0.0703         estimate D2E/DX2                !
 ! D321  D(63,69,75,81)        179.671          estimate D2E/DX2                !
 ! D322  D(76,69,75,70)       -179.4119         estimate D2E/DX2                !
 ! D323  D(76,69,75,81)          0.1888         estimate D2E/DX2                !
 ! D324  D(64,70,75,69)         -0.4919         estimate D2E/DX2                !
 ! D325  D(64,70,75,81)        179.9053         estimate D2E/DX2                !
 ! D326  D(77,70,75,69)        179.0283         estimate D2E/DX2                !
 ! D327  D(77,70,75,81)         -0.5746         estimate D2E/DX2                !
 ! D328  D(66,72,78,73)          0.2517         estimate D2E/DX2                !
 ! D329  D(66,72,78,82)       -179.7623         estimate D2E/DX2                !
 ! D330  D(79,72,78,73)        179.8519         estimate D2E/DX2                !
 ! D331  D(79,72,78,82)         -0.1621         estimate D2E/DX2                !
 ! D332  D(67,73,78,72)          0.6417         estimate D2E/DX2                !
 ! D333  D(67,73,78,82)       -179.3444         estimate D2E/DX2                !
 ! D334  D(80,73,78,72)        179.7157         estimate D2E/DX2                !
 ! D335  D(80,73,78,82)         -0.2704         estimate D2E/DX2                !
 ! D336  D(47,83,85,89)          0.0265         estimate D2E/DX2                !
 ! D337  D(47,83,85,90)        179.8247         estimate D2E/DX2                !
 ! D338  D(86,83,85,89)       -179.4078         estimate D2E/DX2                !
 ! D339  D(86,83,85,90)          0.3905         estimate D2E/DX2                !
 ! D340  D(47,84,87,89)         -1.0522         estimate D2E/DX2                !
 ! D341  D(47,84,87,91)        179.9145         estimate D2E/DX2                !
 ! D342  D(88,84,87,89)        177.0886         estimate D2E/DX2                !
 ! D343  D(88,84,87,91)         -1.9447         estimate D2E/DX2                !
 ! D344  D(83,85,89,87)          0.7321         estimate D2E/DX2                !
 ! D345  D(83,85,89,92)        179.9931         estimate D2E/DX2                !
 ! D346  D(90,85,89,87)       -179.0646         estimate D2E/DX2                !
 ! D347  D(90,85,89,92)          0.1965         estimate D2E/DX2                !
 ! D348  D(84,87,89,85)         -0.2262         estimate D2E/DX2                !
 ! D349  D(84,87,89,92)       -179.4869         estimate D2E/DX2                !
 ! D350  D(91,87,89,85)        178.7973         estimate D2E/DX2                !
 ! D351  D(91,87,89,92)         -0.4634         estimate D2E/DX2                !
 ! D352  D(48,93,95,99)          1.0844         estimate D2E/DX2                !
 ! D353  D(48,93,95,100)       179.6715         estimate D2E/DX2                !
 ! D354  D(96,93,95,99)       -178.1336         estimate D2E/DX2                !
 ! D355  D(96,93,95,100)         0.4535         estimate D2E/DX2                !
 ! D356  D(48,94,97,99)          0.9575         estimate D2E/DX2                !
 ! D357  D(48,94,97,101)      -178.6694         estimate D2E/DX2                !
 ! D358  D(98,94,97,99)        179.2336         estimate D2E/DX2                !
 ! D359  D(98,94,97,101)        -0.3933         estimate D2E/DX2                !
 ! D360  D(93,95,99,97)         -1.1001         estimate D2E/DX2                !
 ! D361  D(93,95,99,102)       178.7462         estimate D2E/DX2                !
 ! D362  D(100,95,99,97)      -179.6806         estimate D2E/DX2                !
 ! D363  D(100,95,99,102)        0.1657         estimate D2E/DX2                !
 ! D364  D(94,97,99,95)          0.09           estimate D2E/DX2                !
 ! D365  D(94,97,99,102)      -179.7561         estimate D2E/DX2                !
 ! D366  D(101,97,99,95)       179.715          estimate D2E/DX2                !
 ! D367  D(101,97,99,102)       -0.1312         estimate D2E/DX2                !
 ! D368  D(50,103,105,109)      -0.2416         estimate D2E/DX2                !
 ! D369  D(50,103,105,110)     179.4808         estimate D2E/DX2                !
 ! D370  D(106,103,105,109)   -179.2214         estimate D2E/DX2                !
 ! D371  D(106,103,105,110)      0.501          estimate D2E/DX2                !
 ! D372  D(50,104,107,109)      -1.5009         estimate D2E/DX2                !
 ! D373  D(50,104,107,111)     179.7405         estimate D2E/DX2                !
 ! D374  D(108,104,107,109)    175.9868         estimate D2E/DX2                !
 ! D375  D(108,104,107,111)     -2.7718         estimate D2E/DX2                !
 ! D376  D(103,105,109,107)      0.623          estimate D2E/DX2                !
 ! D377  D(103,105,109,112)    179.9146         estimate D2E/DX2                !
 ! D378  D(110,105,109,107)   -179.0973         estimate D2E/DX2                !
 ! D379  D(110,105,109,112)      0.1943         estimate D2E/DX2                !
 ! D380  D(104,107,109,105)      0.2385         estimate D2E/DX2                !
 ! D381  D(104,107,109,112)   -179.0538         estimate D2E/DX2                !
 ! D382  D(111,107,109,105)    178.9887         estimate D2E/DX2                !
 ! D383  D(111,107,109,112)     -0.3036         estimate D2E/DX2                !
 ! D384  D(51,113,115,119)       1.0696         estimate D2E/DX2                !
 ! D385  D(51,113,115,120)    -179.776          estimate D2E/DX2                !
 ! D386  D(116,113,115,119)   -179.0252         estimate D2E/DX2                !
 ! D387  D(116,113,115,120)      0.1292         estimate D2E/DX2                !
 ! D388  D(51,114,117,119)      -0.0672         estimate D2E/DX2                !
 ! D389  D(51,114,117,121)    -179.0397         estimate D2E/DX2                !
 ! D390  D(118,114,117,119)    177.9648         estimate D2E/DX2                !
 ! D391  D(118,114,117,121)     -1.0077         estimate D2E/DX2                !
 ! D392  D(113,115,119,117)     -0.0931         estimate D2E/DX2                !
 ! D393  D(113,115,119,122)    179.1775         estimate D2E/DX2                !
 ! D394  D(120,115,119,117)   -179.2452         estimate D2E/DX2                !
 ! D395  D(120,115,119,122)      0.0254         estimate D2E/DX2                !
 ! D396  D(114,117,119,115)     -0.4068         estimate D2E/DX2                !
 ! D397  D(114,117,119,122)   -179.6764         estimate D2E/DX2                !
 ! D398  D(121,117,119,115)    178.5597         estimate D2E/DX2                !
 ! D399  D(121,117,119,122)     -0.7099         estimate D2E/DX2                !
 --------------------------------------------------------------------------------
 Trust Radius=3.00D-01 FncErr=1.00D-07 GrdErr=1.00D-06
 Number of steps in this run=    732 maximum allowed number of steps=    732.
 GradGradGradGradGradGradGradGradGradGradGradGradGradGradGradGradGradGrad

 Stoichiometry    C58H58N2OP2Ru
 Framework group  C1[X(C58H58N2OP2Ru)]
 Deg. of freedom   360
 Full point group                 C1      NOp   1
 Largest Abelian subgroup         C1      NOp   1
 Largest concise Abelian subgroup C1      NOp   1
                         Standard orientation:                         
 ---------------------------------------------------------------------
 Center     Atomic      Atomic             Coordinates (Angstroms)
 Number     Number       Type             X           Y           Z
 ---------------------------------------------------------------------
      1          1           0       -3.119166   -0.657568   -4.146933
      2          6           0       -2.420631   -0.586593   -3.301870
      3          6           0       -3.188602    0.049690   -2.150413
      4          8           0       -3.571981    1.239846   -2.277114
      5          6           0       -4.134295   -1.033411   -1.634016
      6          1           0       -2.068886   -1.594817   -3.077068
      7          1           0       -1.574161    0.033111   -3.607559
      8          1           0       -1.835653    0.071211   -1.080238
      9          1           0       -0.627641    1.426140    1.846731
     10          7           0       -2.359166    2.463991    0.062225
     11          7           0       -2.926966    0.195320    1.465066
     12          6           0       -3.330493    2.606968    1.167259
     13          1           0       -1.869967    3.347990   -0.070144
     14          1           0       -2.855968    2.258950   -0.815886
     15          6           0       -3.981686    1.228584    1.363303
     16          1           0       -3.314291   -0.693955    1.149938
     17          1           0       -2.679526    0.054952    2.441097
     18          6           0       -4.368589    3.708044    0.848469
     19          6           0       -2.511745    3.056358    2.408018
     20          6           0       -5.056035    0.940918    0.312281
     21          6           0       -4.765262    1.218627    2.728217
     22          6           0       -3.700467   -2.081825   -0.817272
     23          6           0       -5.458465   -1.033247   -2.109655
     24          6           0       -5.898089   -3.098290   -0.920394
     25          6           0       -6.334716   -2.057757   -1.751223
     26          6           0       -4.580713   -3.109133   -0.456646
     27          1           0       -2.666272   -2.095518   -0.473391
     28          1           0       -4.234287   -3.920928    0.177646
     29          1           0       -6.581768   -3.896394   -0.644634
     30          1           0       -7.357817   -2.052193   -2.120601
     31          1           0       -5.787995   -0.216652   -2.754404
     32          1           0       -3.904016    4.697851    0.798275
     33          1           0       -5.146794    3.754222    1.616833
     34          1           0       -4.867375    3.537561   -0.115036
     35          1           0       -2.156799    4.084318    2.308485
     36          1           0       -1.590320    2.398180    2.500415
     37          1           0       -3.080718    2.992963    3.334839
     38          1           0       -4.723898    1.213067   -0.714290
     39          1           0       -5.965404    1.525136    0.486032
     40          1           0       -5.360640   -0.110610    0.301802
     41          1           0       -4.107981    1.347612    3.592621
     42          1           0       -5.315541    0.281805    2.856315
     43          1           0       -5.501684    2.028332    2.760724
     44         44           0       -1.081939    0.749404    0.409369
     45         15           0        0.766545    1.636930   -0.559568
     46         15           0        0.035307   -1.121671    1.049987
     47          6           0        0.370644    3.008921   -1.743836
     48          6           0        2.135476    2.396878    0.426220
     49          6           0        1.723646    0.398778   -1.554708
     50          6           0       -0.840611   -1.798086    2.534329
[...]
 Alpha virt. eigenvalues --    0.95008   0.95077   0.95416   0.95516   0.95648
 Alpha virt. eigenvalues --    0.95673   0.95902   0.96080   0.96222   0.96778
 Alpha virt. eigenvalues --    0.96798   0.97128   0.97260   0.97457   0.97619
 Alpha virt. eigenvalues --    0.97797   0.98238   0.98544   0.98771   0.98852
 Alpha virt. eigenvalues --    0.99187   0.99554   0.99597   0.99872   1.00082
 Alpha virt. eigenvalues --    1.00351   1.00486   1.00574   1.01347   1.01371
 Alpha virt. eigenvalues --    1.01762   1.01843   1.01933   1.02166   1.02368
 Alpha virt. eigenvalues --    1.02794   1.02843   1.03402   1.03442   1.03740
 Alpha virt. eigenvalues --    1.03984   1.04018   1.04426   1.04695   1.04752
 Alpha virt. eigenvalues --    1.04925   1.05273   1.05429   1.05575   1.06153
 Alpha virt. eigenvalues --    1.06339   1.06683   1.06925   1.07204   1.07564
 Alpha virt. eigenvalues --    1.07880   1.08253   1.08645   1.08816   1.08947
 Alpha virt. eigenvalues --    1.09289   1.09610   1.10058   1.10493   1.10647
 Alpha virt. eigenvalues --    1.10926   1.11195   1.11322   1.11658   1.11753
 Alpha virt. eigenvalues --    1.12343   1.12806   1.13062   1.13145   1.13881
 Alpha virt. eigenvalues --    1.14029   1.14254   1.14465   1.14608   1.15135
 Alpha virt. eigenvalues --    1.15394   1.16111   1.16365   1.16997   1.17347
 Alpha virt. eigenvalues --    1.17783   1.18022   1.18425   1.18649   1.18768
 Alpha virt. eigenvalues --    1.19525   1.20144   1.20502   1.20971   1.21093
 Alpha virt. eigenvalues --    1.21446   1.21713   1.22016   1.22296   1.22837
 Alpha virt. eigenvalues --    1.23087   1.23863   1.24000   1.24399   1.24880
 Alpha virt. eigenvalues --    1.25271   1.25867   1.26015   1.26445   1.26640
 Alpha virt. eigenvalues --    1.27049   1.27522   1.27842   1.28235   1.28684
 Alpha virt. eigenvalues --    1.29206   1.29680   1.30020   1.30577   1.31081
 Alpha virt. eigenvalues --    1.31296   1.31982   1.32212   1.32457   1.32756
 Alpha virt. eigenvalues --    1.33226   1.33663   1.33906   1.34087   1.34558
 Alpha virt. eigenvalues --    1.34777   1.35125   1.35199   1.35638   1.35979
 Alpha virt. eigenvalues --    1.36204   1.36686   1.37351   1.38031   1.38310
 Alpha virt. eigenvalues --    1.38475   1.39507   1.40108   1.40382   1.40435
 Alpha virt. eigenvalues --    1.41345   1.41935   1.42525   1.43602   1.44018
 Alpha virt. eigenvalues --    1.44338   1.44808   1.45348   1.45913   1.46458
 Alpha virt. eigenvalues --    1.47146   1.47926   1.48489   1.48738   1.49454
 Alpha virt. eigenvalues --    1.49797   1.50240   1.50805   1.51470   1.51621
 Alpha virt. eigenvalues --    1.51832   1.52385   1.52919   1.53223   1.53379
 Alpha virt. eigenvalues --    1.53706   1.53836   1.54043   1.54392   1.54932
 Alpha virt. eigenvalues --    1.55174   1.55282   1.55451   1.55776   1.56049
 Alpha virt. eigenvalues --    1.56650   1.56721   1.56787   1.56986   1.57286
 Alpha virt. eigenvalues --    1.57444   1.57679   1.57876   1.57923   1.58174
 Alpha virt. eigenvalues --    1.58215   1.58482   1.58636   1.58733   1.58942
 Alpha virt. eigenvalues --    1.59154   1.59647   1.59759   1.59800   1.60018
 Alpha virt. eigenvalues --    1.60219   1.60613   1.60920   1.61482   1.61888
 Alpha virt. eigenvalues --    1.62169   1.62945   1.63084   1.63471   1.64196
 Alpha virt. eigenvalues --    1.64745   1.65230   1.65877   1.66691   1.67546
 Alpha virt. eigenvalues --    1.68298   1.68845   1.69949   1.70624   1.71094
 Alpha virt. eigenvalues --    1.71444   1.72759   1.74029   1.74526   1.75177
 Alpha virt. eigenvalues --    1.76574   1.77142   1.78594   1.79126   1.79462
 Alpha virt. eigenvalues --    1.80708   1.81664   1.83041   1.84478   1.84827
 Alpha virt. eigenvalues --    1.85711   1.86100   1.86141   1.87127   1.87699
 Alpha virt. eigenvalues --    1.88672   1.89126   1.89274   1.89472   1.89875
 Alpha virt. eigenvalues --    1.90437   1.90861   1.91672   1.91797   1.92029
 Alpha virt. eigenvalues --    1.92512   1.92800   1.93336   1.93649   1.93987
 Alpha virt. eigenvalues --    1.94396   1.94709   1.95179   1.95531   1.96477
 Alpha virt. eigenvalues --    1.96722   1.97078   1.97427   1.97816   1.98076
 Alpha virt. eigenvalues --    1.98768   1.99010   1.99605   2.00138   2.00676
 Alpha virt. eigenvalues --    2.00826   2.00957   2.01420   2.01480   2.01759
 Alpha virt. eigenvalues --    2.02138   2.02189   2.02501   2.02896   2.02942
 Alpha virt. eigenvalues --    2.03580   2.03660   2.04689   2.05199   2.05515
 Alpha virt. eigenvalues --    2.06203   2.06425   2.07225   2.07896   2.08284
 Alpha virt. eigenvalues --    2.08545   2.08809   2.09379   2.09836   2.10156
 Alpha virt. eigenvalues --    2.10642   2.11056   2.11646   2.12568   2.12722
 Alpha virt. eigenvalues --    2.13283   2.13836   2.14105   2.14360   2.15129
 Alpha virt. eigenvalues --    2.15769   2.16078   2.16373   2.16830   2.17189
 Alpha virt. eigenvalues --    2.17387   2.17995   2.18676   2.19460   2.20099
 Alpha virt. eigenvalues --    2.20474   2.20848   2.20934   2.21820   2.21969
 Alpha virt. eigenvalues --    2.22450   2.22711   2.23290   2.23956   2.24063
 Alpha virt. eigenvalues --    2.24355   2.24615   2.24675   2.24850   2.24977
 Alpha virt. eigenvalues --    2.25157   2.25783   2.26056   2.26244   2.26333
 Alpha virt. eigenvalues --    2.26555   2.26722   2.26780   2.27084   2.27192
 Alpha virt. eigenvalues --    2.27732   2.27977   2.28138   2.28620   2.28928
 Alpha virt. eigenvalues --    2.29337   2.29768   2.30147   2.30267   2.30580
 Alpha virt. eigenvalues --    2.30727   2.31218   2.31533   2.31800   2.32486
 Alpha virt. eigenvalues --    2.33102   2.33973   2.34357   2.34529   2.35785
 Alpha virt. eigenvalues --    2.36502   2.36701   2.37126   2.37309   2.37832
 Alpha virt. eigenvalues --    2.37950   2.38115   2.38575   2.38791   2.38929
 Alpha virt. eigenvalues --    2.39719   2.39882   2.39994   2.40254   2.40528
 Alpha virt. eigenvalues --    2.41040   2.41108   2.41374   2.41664   2.42215
 Alpha virt. eigenvalues --    2.42375   2.42510   2.42721   2.42908   2.43132
 Alpha virt. eigenvalues --    2.43812   2.44079   2.44214   2.44366   2.44745
 Alpha virt. eigenvalues --    2.45116   2.45325   2.45838   2.46960   2.48028
 Alpha virt. eigenvalues --    2.49428   2.50379   2.51684   2.52862   2.53121
 Alpha virt. eigenvalues --    2.55500   2.56179   2.56807   2.58033   2.62878
 Alpha virt. eigenvalues --    2.63588   2.65273   2.65931   2.66353   2.66629
 Alpha virt. eigenvalues --    2.67456   2.67901   2.68551   2.68809   2.69142
 Alpha virt. eigenvalues --    2.69306   2.70313   2.70654   2.70897   2.71632
 Alpha virt. eigenvalues --    2.72120   2.72968   2.73227   2.73454   2.73703
 Alpha virt. eigenvalues --    2.73826   2.74473   2.74706   2.74732   2.74859
 Alpha virt. eigenvalues --    2.75217   2.75525   2.75990   2.76528   2.76826
 Alpha virt. eigenvalues --    2.77417   2.77615   2.78014   2.78447   2.78957
 Alpha virt. eigenvalues --    2.79062   2.80053   2.80518   2.81162   2.82000
 Alpha virt. eigenvalues --    2.82260   2.82389   2.83535   2.84040   2.84947
 Alpha virt. eigenvalues --    2.85417   2.85684   2.86352   2.86576   2.87050
 Alpha virt. eigenvalues --    2.87142   2.87447   2.87683   2.87971   2.88696
 Alpha virt. eigenvalues --    2.88993   2.89133   2.89673   2.90067   2.90753
 Alpha virt. eigenvalues --    2.91341   2.91440   2.91970   2.92765   2.93434
 Alpha virt. eigenvalues --    2.94574   2.95400   2.96384   2.97278   2.99709
 Alpha virt. eigenvalues --    3.00913   3.01492   3.02969   3.03657   3.04618
 Alpha virt. eigenvalues --    3.07297   3.08936   3.10451   3.14437   3.14890
 Alpha virt. eigenvalues --    3.15422   3.15975   3.16978   3.19647   3.21891
 Alpha virt. eigenvalues --    3.22683   3.27125   3.44321   3.47362   3.48398
 Alpha virt. eigenvalues --    3.49027   3.50639   3.50780   3.52384   3.56366
 Alpha virt. eigenvalues --    3.59153  34.94144  35.14570  35.31141  46.40554
          Condensed to atoms (all electrons):
 Mulliken charges:
               1
     1  H    0.183897
     2  C   -0.544530
     3  C    0.339585
     4  O   -0.559544
     5  C    0.078586
     6  H    0.182447
     7  H    0.189817
     8  H   -0.183579
     9  H   -0.018095
    10  N   -0.853919
    11  N   -0.861380
    12  C    0.211191
    13  H    0.420893
    14  H    0.462237
    15  C    0.229650
    16  H    0.434245
    17  H    0.438286
    18  C   -0.529460
    19  C   -0.536048
    20  C   -0.562462
    21  C   -0.548936
    22  C   -0.214613
    23  C   -0.205531
    24  C   -0.184104
    25  C   -0.182058
    26  C   -0.193974
    27  H    0.212903
    28  H    0.180803
    29  H    0.182598
    30  H    0.182277
    31  H    0.181477
    32  H    0.182273
    33  H    0.175520
    34  H    0.188956
    35  H    0.182877
    36  H    0.231072
    37  H    0.175868
    38  H    0.215065
    39  H    0.176072
    40  H    0.174987
    41  H    0.190304
    42  H    0.188862
    43  H    0.180534
    44  Ru  -0.710876
    45  P    0.600848
    46  P    0.613081
    47  C   -0.136445
    48  C   -0.142928
    49  C   -0.125812
    50  C   -0.124892
    51  C   -0.161127
    52  C   -0.120341
    53  C   -0.072091
    54  C   -0.222646
    55  C   -0.067543
    56  C   -0.227616
    57  C    0.100918
    58  C   -0.218166
    59  H    0.184852
    60  C    0.107412
    61  C   -0.214901
    62  H    0.181813
    63  C    0.094256
    64  C   -0.200262
    65  H    0.185362
    66  C    0.095120
    67  C   -0.212318
    68  H    0.185524
    69  C   -0.228504
    70  C   -0.185651
    71  H    0.179104
    72  C   -0.225692
    73  C   -0.185627
    74  H    0.181817
    75  C   -0.188142
    76  H    0.182329
    77  H    0.179897
    78  C   -0.188121
    79  H    0.183613
    80  H    0.181701
    81  H    0.182328
    82  H    0.183662
    83  C   -0.203069
    84  C   -0.207826
    85  C   -0.175140
    86  H    0.183954
    87  C   -0.185177
    88  H    0.242068
    89  C   -0.184011
    90  H    0.185317
    91  H    0.187958
    92  H    0.187291
    93  C   -0.198546
    94  C   -0.163527
    95  C   -0.158889
    96  H    0.182443
    97  C   -0.188442
    98  H    0.216230
    99  C   -0.179767
   100  H    0.177052
   101  H    0.179137
   102  H    0.179803
   103  C   -0.201036
   104  C   -0.246742
   105  C   -0.171515
   106  H    0.190446
   107  C   -0.172138
   108  H    0.228307
   109  C   -0.181986
   110  H    0.189968
   111  H    0.193640
   112  H    0.191536
   113  C   -0.189672
   114  C   -0.169327
   115  C   -0.168771
   116  H    0.185151
   117  C   -0.176192
   118  H    0.219242
   119  C   -0.175134
   120  H    0.180077
   121  H    0.177858
   122  H    0.180442
 Sum of Mulliken charges =   0.00000
 Mulliken charges with hydrogens summed into heavy atoms:
               1
     2  C    0.011630
     3  C    0.156007
     4  O   -0.559544
     5  C    0.078586
    10  N    0.029210
    11  N    0.011151
    12  C    0.211191
    15  C    0.229650
    18  C    0.017289
    19  C    0.053769
    20  C    0.003662
    21  C    0.010763
    22  C   -0.001710
    23  C   -0.024055
    24  C   -0.001506
    25  C    0.000220
    26  C   -0.013170
    44  Ru  -0.728971
    45  P    0.600848
    46  P    0.613081
    47  C   -0.136445
    48  C   -0.142928
    49  C   -0.125812
    50  C   -0.124892
    51  C   -0.161127
    52  C   -0.120341
    53  C   -0.072091
    54  C   -0.037793
    55  C   -0.067543
    56  C   -0.045804
    57  C    0.100918
    58  C   -0.032804
    60  C    0.107412
    61  C   -0.029377
    63  C    0.094256
    64  C   -0.021158
    66  C    0.095120
    67  C   -0.030501
    69  C   -0.046175
    70  C   -0.005755
    72  C   -0.042079
    73  C   -0.003925
    75  C   -0.005814
    78  C   -0.004459
    83  C   -0.019115
    84  C    0.034242
    85  C    0.010178
    87  C    0.002782
    89  C    0.003280
    93  C   -0.016103
    94  C    0.052703
    95  C    0.018163
    97  C   -0.009305
    99  C    0.000036
   103  C   -0.010590
   104  C   -0.018435
   105  C    0.018454
   107  C    0.021502
   109  C    0.009550
   113  C   -0.004520
   114  C    0.049915
   115  C    0.011306
   117  C    0.001666
   119  C    0.005309
 Electronic spatial extent (au):  <R**2>=          37717.0936
 Charge=              0.0000 electrons
 Dipole moment (field-independent basis, Debye):
    X=              0.5406    Y=             -1.5586    Z=              4.4758  Tot=              4.7701
 Quadrupole moment (field-independent basis, Debye-Ang):
   XX=           -368.7393   YY=           -372.9618   ZZ=           -369.4117
   XY=              5.4160   XZ=            -18.2919   YZ=              1.4584
 Traceless Quadrupole moment (field-independent basis, Debye-Ang):
   XX=              1.6316   YY=             -2.5909   ZZ=              0.9593
   XY=              5.4160   XZ=            -18.2919   YZ=              1.4584
 Octapole moment (field-independent basis, Debye-Ang**2):
  XXX=            -71.4024  YYY=              2.0453  ZZZ=             69.1029  XYY=            -16.9336
  XXY=             21.8068  XXZ=            109.3086  XZZ=            -10.0652  YZZ=              8.1281
  YYZ=            -21.9248  XYZ=             40.0046
 Hexadecapole moment (field-independent basis, Debye-Ang**3):
 XXXX=         -23180.7953 YYYY=         -14325.0490 ZZZZ=         -11058.5969 XXXY=            461.3437
 XXXZ=             62.7201 YYYX=           -216.8195 YYYZ=           -201.3983 ZZZX=           -163.0403
 ZZZY=             67.5809 XXYY=          -6170.1707 XXZZ=          -5800.3833 YYZZ=          -4180.2940
 XXYZ=            173.0878 YYXZ=           -286.2118 ZZXY=             -8.0043
 N-N= 1.165993190351D+04 E-N=-3.078518078982D+04  KE= 3.128633420879D+03
 1\1\GINC-N229\FOpt\RwB97XD\GenECP\C58H58N2O1P2Ru1\VMI38398\20-Dec-2018
 \0\\#wb97xd/genecp opt=(modredundant,maxcyc=1000) scrf=(pcm,solvent=2-
 propanol)\\step 2 (attempt 1) cycle 1\\0,1\H,-1.2475940295,-0.54852295
 82,-5.099273116\C,-0.7856491986,-0.4853877696,-4.1044513668\C,-1.92418
 59178,-0.4154437517,-3.08900042\O,-2.6654567883,0.599441355,-3.0942808
 326\C,-2.5676717924,-1.7681114305,-2.80783888\H,-0.1590112612,-1.36877
 38474,-3.9701148187\H,-0.1652995571,0.4123546887,-4.0705128421\H,-0.89
 84201084,-0.3161800221,-1.7054688885\H,-0.5890070094,0.6245613856,1.57
 36727025\N,-2.2728615483,1.6027450631,-0.3825028475\N,-2.4930925417,-0
 .8500619315,0.5629312343\C,-3.4182349625,1.4709568082,0.558066016\H,-1
 .9885899549,2.5804534287,-0.4129654477\H,-2.5788274775,1.3687407316,-1
 .3398946985\C,-3.7697429211,-0.0591609538,0.6279677907\H,-2.631373216,
 -1.6445778855,-0.0599104246\H,-2.3059708886,-1.2511932177,1.4779342545
 \C,-4.5947446608,2.3134205118,0.0383529827\C,-3.0056112063,2.043582511
 8,1.9199168123\C,-4.652707597,-0.4780100273,-0.5531304236\C,-4.4998255
 897,-0.4239233792,1.9259663662\C,-1.9884839475,-2.7777534008,-2.037692
 8827\C,-3.8080515078,-2.0087696187,-3.4046682304\C,-3.8941427158,-4.21
 26523146,-2.4236174173\C,-4.4666703052,-3.2213018865,-3.2181746756\C,-
 2.6502759096,-3.9870686676,-1.836140075\H,-1.0297629084,-2.5936751623,
 -1.5652100398\H,-2.1960411517,-4.7493499243,-1.2090332153\H,-4.4129897
 155,-5.1533255138,-2.2639870281\H,-5.4341520619,-3.3875038816,-3.68345
 8614\H,-4.2643463876,-1.2237887709,-4.0005914546\H,-4.335967511,3.3765
 59157,0.1000860762\H,-5.4961196134,2.1564175248,0.6408927743\H,-4.8322
 575242,2.0849984299,-1.0042017019\H,-2.5696216056,3.0402867204,1.78160
 51688\H,-2.2577680387,1.4205376582,2.4119569309\H,-3.8790264125,2.1511
 537114,2.570113279\H,-4.2388859273,-0.14817224,-1.508334704\H,-5.65950
 96926,-0.0645433193,-0.4456071789\H,-4.7450498526,-1.5697280868,-0.581
 5317429\H,-3.8692259374,-0.2747137859,2.8082241818\H,-4.7937189037,-1.
 4789117412,1.8935503989\H,-5.4084403573,0.1741424988,2.0516188692\Ru,-
 0.6555455667,0.2145475449,-0.0006815454\P,1.0552185398,1.6497920338,-0
 .3927989057\P,0.7871460374,-1.4180861696,0.6128869242\C,0.6029957888,3
 .0761975459,-1.4974136005\C,1.9012814197,2.5361610095,0.994068972\C,2.
 5000242147,0.8698932543,-1.2568254654\C,-0.1112732832,-2.6019401238,1.
 7226456502\C,1.6231567429,-2.5698129228,-0.5610952964\C,2.2852959282,-
 0.8502109672,1.5587939307\C,3.3474229584,-0.0032333668,-0.5885532952\C
 ,2.6115625383,1.012001987,-2.6658129883\C,3.3078166482,-0.1743895631,0
 .9036381473\C,2.3413537749,-0.993964799,2.9694591223\C,4.3236475311,-0
 .7550463056,-1.3274193284\C,3.5440634918,0.3149323525,-3.3823487569\H,
 1.9454088957,1.6932926291,-3.1848249881\C,4.3932306062,0.3854020988,1.
 6610766016\C,3.348281129,-0.4370817713,3.7083605834\H,1.5740519819,-1.
 5611929352,3.4812973889\C,4.4256701646,-0.5855155756,-2.7350764248\C,5
 .1954166068,-1.6897394978,-0.7039607931\H,3.6167765617,0.4440734528,-4
 .4593195733\C,4.3929333798,0.2791959967,3.0777085334\C,5.4746083301,1.
 0781818052,1.0474978813\H,3.3608546139,-0.5503778484,4.7894481901\C,5.
 3938371896,-1.3236610995,-3.4644346684\C,6.1231164036,-2.3900559394,-1
 .4317701984\H,5.1156483559,-1.8568443137,0.3642994168\C,5.4414494752,0
 .8718124854,3.8304800458\C,6.4825406186,1.6292466759,1.7958544633\H,5.
 4936414634,1.1831484279,-0.0310872568\C,6.2294450042,-2.2053530528,-2.
 8292255631\H,5.4557291007,-1.1789936314,-4.5401303737\H,6.7739361268,-
 3.1018847259,-0.9325801965\C,6.4669316378,1.5325546574,3.2064105923\H,
 5.4160127498,0.7863666601,4.9138384403\H,7.2934601463,2.1560151891,1.3
 015885862\H,6.9675442827,-2.7668326328,-3.394260296\H,7.2660834087,1.9
 808520218,3.789238122\C,1.0901464647,4.3828735409,-1.37200455\C,-0.330
 7697017,2.8177330604,-2.5090178231\C,0.6729397272,5.386992195,-2.24421
 4859\H,1.7928926163,4.6363674868,-0.5870838695\C,-0.7436638544,3.81615
 35303,-3.3861616548\H,-0.7627106548,1.8275483448,-2.5955829255\C,-0.23
 94025928,5.1078808835,-3.2586906839\H,1.0628234017,6.3937310535,-2.124
 7397896\H,-1.4697186448,3.5792201506,-4.158454113\H,-0.5622378671,5.89
 31309245,-3.9358100123\C,3.1211062578,3.1918512328,0.785991412\C,1.336
 0669239,2.5730017679,2.2697634714\C,3.7547058539,3.8700583619,1.821128
 5987\H,3.5965895161,3.1509981329,-0.1906998549\C,1.9753288245,3.239238
 4329,3.313335416\H,0.4019038833,2.0484185763,2.4433389954\C,3.18576214
 86,3.8896448446,3.0922373014\H,4.7077096931,4.3573556505,1.6401178873\
 H,1.5291544418,3.2408210106,4.303975844\H,3.6881831842,4.403387924,3.9
 066857459\C,-0.4176922332,-3.9021990965,1.307221852\C,-0.7195656033,-2
 .128107771,2.8974470115\C,-1.2811959091,-4.7095831591,2.0475788171\H,0
 .0084739124,-4.2962629061,0.3909428092\C,-1.5681435297,-2.937739953,3.
 6466709738\H,-0.55768528,-1.098923334,3.2056732181\C,-1.8537098283,-4.
 2352561111,3.2227537504\H,-1.5047946854,-5.7131016428,1.6974915775\H,-
 2.0201410529,-2.5472665113,4.5535975193\H,-2.5257474612,-4.8639435137,
 3.7988194756\C,2.4339439831,-3.6206865009,-0.115516731\C,1.5122854115,
 -2.3372059402,-1.9285465672\C,3.0937848655,-4.4361494449,-1.0274051\H,
 2.5510845646,-3.8025335628,0.950237339\C,2.1824348556,-3.1423500598,-2
 .8457505124\H,0.9230370482,-1.488541255,-2.2574078242\C,2.9699793234,-
 4.1969818588,-2.396426614\H,3.7192818007,-5.2494176964,-0.6712669417\H
 ,2.1044993545,-2.9302532444,-3.908404137\H,3.5017910592,-4.8225538253,
 -3.1072764009\\Version=ES64L-G09RevD.01\State=1-A\HF=-3206.7715201\RMS
 D=4.922e-09\RMSF=7.377e-04\Dipole=0.070374,-0.8418641,1.6758267\Quadru
 pole=3.3965322,0.6015568,-3.9980889,6.7619415,-12.0333369,-0.8464528\P
 G=C01 [X(C58H58N2O1P2Ru1)]\\@


 MAN IS A SINGULAR CREATURE.  HE HAS A SET OF GIFTS
 WHICH MAKE HIM UNIQUE AMONG THE ANIMALS: SO THAT, 
 UNLIKE THEM, HE IS NOT A FIGURE IN THE LANDSCAPE --
 HE IS A SHAPER OF THE LANDSCAPE.

                       -- JACOB BRONOWSKI
 Job cpu time:       5 days 14 hours 33 minutes  5.1 seconds.
 File lengths (MBytes):  RWF=   2089 Int=      0 D2E=      0 Chk=     88 Scr=      1
 Normal termination of Gaussian 09 at Thu Dec 20 04:37:30 2018.
