 Entering Gaussian System, Link 0=g09
 Input=/home/vmi38398/chem/asymmetric_hydrogenation/debug/S_binap/S_binap-TMEN_Ph/R/ts1/Cf1/S_binap-TMEN_Ph.R.ts1.Cf1.1.com
 Output=/home/vmi38398/chem/asymmetric_hydrogenation/debug/S_binap/S_binap-TMEN_Ph/R/ts1/Cf1/S_binap-TMEN_Ph.R.ts1.Cf1.1.log
 Initial command:
 /usr/local/apps/eb/gaussian/09-Intel-SSE4_2/g09/l1.exe "/lscratch/vmi38398/651387.sapelo2/Gau-195903.inp" -scrdir="/lscratch/vmi38398/651387.sapelo2/"
 Default is to use a total of   2 processors:
                                2 via shared-memory
                                1 via Linda
 Entering Link 1 = /usr/local/apps/eb/gaussian/09-Intel-SSE4_2/g09/l1.exe PID=    195904.
  
 Copyright (c) 1988,1990,1992,1993,1995,1998,2003,2009,2013,
            Gaussian, Inc.  All Rights Reserved.
  
 This is part of the Gaussian(R) 09 program.  It is based on
 the Gaussian(R) 03 system (copyright 2003, Gaussian, Inc.),
 the Gaussian(R) 98 system (copyright 1998, Gaussian, Inc.),
 the Gaussian(R) 94 system (copyright 1995, Gaussian, Inc.),
 the Gaussian 92(TM) system (copyright 1992, Gaussian, Inc.),
 the Gaussian 90(TM) system (copyright 1990, Gaussian, Inc.),
 the Gaussian 88(TM) system (copyright 1988, Gaussian, Inc.),
 the Gaussian 86(TM) system (copyright 1986, Carnegie Mellon
 University), and the Gaussian 82(TM) system (copyright 1983,
 Carnegie Mellon University). Gaussian is a federally registered
 trademark of Gaussian, Inc.
  
 This software contains proprietary and confidential information,
 including trade secrets, belonging to Gaussian, Inc.
  
 This software is provided under written license and may be
 used, copied, transmitted, or stored only in accord with that
 written license.
  
 The following legend is applicable only to US Government
 contracts under FAR:
  
                    RESTRICTED RIGHTS LEGEND
  
 Use, reproduction and disclosure by the US Government is
 subject to restrictions as set forth in subparagraphs (a)
 and (c) of the Commercial Computer Software - Restricted
 Rights clause in FAR 52.227-19.
  
 Gaussian, Inc.
 340 Quinnipiac St., Bldg. 40, Wallingford CT 06492
  
  
 ---------------------------------------------------------------
 Warning -- This program may not be used in any manner that
 competes with the business of Gaussian, Inc. or will provide
 assistance to any competitor of Gaussian, Inc.  The licensee
 of this program is prohibited from giving any competitor of
 Gaussian, Inc. access to this program.  By using this program,
 the user acknowledges that Gaussian, Inc. is engaged in the
 business of creating and licensing software in the field of
 computational chemistry and represents and warrants to the
 licensee that it is not a competitor of Gaussian, Inc. and that
 it will not use this program in any manner prohibited above.
 ---------------------------------------------------------------
  

 Cite this work as:
 Gaussian 09, Revision D.01,
 M. J. Frisch, G. W. Trucks, H. B. Schlegel, G. E. Scuseria, 
 M. A. Robb, J. R. Cheeseman, G. Scalmani, V. Barone, B. Mennucci, 
 G. A. Petersson, H. Nakatsuji, M. Caricato, X. Li, H. P. Hratchian, 
 A. F. Izmaylov, J. Bloino, G. Zheng, J. L. Sonnenberg, M. Hada, 
 M. Ehara, K. Toyota, R. Fukuda, J. Hasegawa, M. Ishida, T. Nakajima, 
 Y. Honda, O. Kitao, H. Nakai, T. Vreven, J. A. Montgomery, Jr., 
 J. E. Peralta, F. Ogliaro, M. Bearpark, J. J. Heyd, E. Brothers, 
 K. N. Kudin, V. N. Staroverov, T. Keith, R. Kobayashi, J. Normand, 
 K. Raghavachari, A. Rendell, J. C. Burant, S. S. Iyengar, J. Tomasi, 
 M. Cossi, N. Rega, J. M. Millam, M. Klene, J. E. Knox, J. B. Cross, 
 V. Bakken, C. Adamo, J. Jaramillo, R. Gomperts, R. E. Stratmann, 
 O. Yazyev, A. J. Austin, R. Cammi, C. Pomelli, J. W. Ochterski, 
 R. L. Martin, K. Morokuma, V. G. Zakrzewski, G. A. Voth, 
 P. Salvador, J. J. Dannenberg, S. Dapprich, A. D. Daniels, 
 O. Farkas, J. B. Foresman, J. V. Ortiz, J. Cioslowski, 
 and D. J. Fox, Gaussian, Inc., Wallingford CT, 2013.
 
 ******************************************
 Gaussian 09:  ES64L-G09RevD.01 24-Apr-2013
                19-Dec-2018 
 ******************************************
 --------------
 #PM6 opt nosym
 --------------
 1/14=-1,18=20,19=15,26=1,38=1/1,3;
 2/9=110,12=2,15=1,17=6,18=5,40=1/2;
 3/5=2,16=1,25=1,41=3900000,71=1/1,2,3;
 4/35=1/1;
 5/5=2,35=1,38=5/2;
 6/7=2,8=2,9=2,10=2,28=1/1;
 7/30=1/1,2,3,16;
 1/14=-1,18=20,19=15,26=1/3(2);
 2/9=110,15=1/2;
 99//99;
 2/9=110,15=1/2;
 3/5=2,16=1,25=1,41=3900000,71=1,135=20/1,2,3;
 4/5=5,16=3,35=1/1;
 5/5=2,35=1,38=5/2;
 7/30=1/1,2,3,16;
 1/14=-1,18=20,19=15,26=1/3(-5);
 2/9=110,15=1/2;
 6/7=2,8=2,9=2,10=2,19=2,28=1/1;
 99/9=1/99;
 Leave Link    1 at Wed Dec 19 17:02:09 2018, MaxMem=           0 cpu:         0.0
 (Enter /usr/local/apps/eb/gaussian/09-Intel-SSE4_2/g09/l101.exe)
 --------------------------
 step 1 (attempt 1) cycle 1
 --------------------------
 Symbolic Z-matrix:
 Charge =  0 Multiplicity = 1
 H                    -1   -1.32054  -0.7589   -4.97019 
 C                    -1   -0.8371   -0.67504  -3.98693 
 C                    -1   -1.94818  -0.4472   -2.97055 
 O                    -1   -2.60335   0.6234   -3.03491 
 C                    0    -1.91513  -1.64537  -2.02371 
 H                    -1   -0.27898  -1.59632  -3.81264 
 H                    -1   -0.14406   0.1691   -4.01642 
 H                    -1   -0.87528  -0.29689  -1.62782 
 H                    -1   -0.64154   0.77071   1.63835 
 N                    -1   -2.22027   1.67036  -0.35156 
 N                    -1   -2.41708  -0.87753   0.60051 
 C                    -1   -3.38272   1.38551   0.51399 
 H                    -1   -1.96741   2.65271  -0.26188 
 H                    -1   -2.47077   1.5104   -1.33734 
 C                    -1   -3.6719   -0.11908   0.39143 
 H                    -1   -2.48854  -1.76419   0.10163 
 H                    -1   -2.32916  -1.12467   1.58359 
 C                    0    -4.60334   2.19926   0.04626 
 C                    0    -3.09057   1.77366   1.97511 
 C                    0    -4.22892  -0.42312  -1.01148 
 C                    0    -4.70772  -0.53325   1.45275 
 C                    0    -0.72254  -2.34989  -1.82853 
 C                    0    -3.07746  -2.03811  -1.3518 
 C                    0    -1.8546   -3.83988  -0.28953 
 C                    0    -3.0472   -3.13536  -0.48471 
 C                    0    -0.69227  -3.44714  -0.96144 
 H                    0     0.18094  -2.04461  -2.3508 
 H                    0     0.23473  -3.99475  -0.80973 
 H                    0    -1.83108  -4.69276   0.38446 
 H                    0    -3.95067  -3.44063   0.03757 
 H                    0    -4.00446  -1.49049  -1.50351 
 H                    0    -4.40462   3.28501   0.16896 
 H                    0    -5.49516   1.92487   0.64855 
 H                    0    -4.81159   1.9888   -1.02413 
 H                    0    -2.86992   2.86006   2.04178 
 H                    0    -2.2148    1.2034    2.35089 
 H                    0    -3.97126   1.54414   2.61158 
 H                    0    -3.41067  -0.38192  -1.76127 
 H                    0    -5.00442   0.32456  -1.28159 
 H                    0    -4.68299  -1.43651  -1.02755 
 H                    0    -4.19611  -1.00774   2.31676 
 H                    0    -5.42794  -1.25768   1.017 
 H                    0    -5.264     0.35983   1.80822 
 Ru                   -1   -0.62191   0.26814   0.06452 
 P                    -1    1.07205   1.71869  -0.34745 
 P                    -1    0.81151  -1.37184   0.70896 
 C                    -1    0.55526   3.145    -1.41523 
 C                    -1    1.97994   2.59379   1.00651 
 C                    -1    2.4926    0.93221  -1.24347 
 C                    -1   -0.11544  -2.48291   1.86409 
 C                    -1    1.60408  -2.58882  -0.43067 
 C                    -1    2.341    -0.8059    1.59984 
 C                    -1    3.33578   0.04627  -0.58629 
 C                    -1    2.60045   1.09163  -2.65079 
 C                    -1    3.33694  -0.12514   0.90812 
 C                    -1    2.46312  -0.97926   3.00323 
 C                    -1    4.28462  -0.72389  -1.34298 
 C                    -1    3.51379   0.38421  -3.38194 
 H                    -1    1.94937   1.7938   -3.16019 
 C                    -1    4.45682   0.42048   1.62607 
 C                    -1    3.50924  -0.44591   3.70435 
 H                    -1    1.71903  -1.55347   3.54106 
 C                    -1    4.37499  -0.54687  -2.75091 
 C                    -1    5.13058  -1.6949   -0.73828 
 H                    -1    3.58576   0.52763  -4.45722 
 C                    -1    4.52546   0.28009   3.03897 
 C                    -1    5.51015   1.12556   0.97778 
 H                    -1    3.57546  -0.58565   4.78041 
 C                    -1    5.30218  -1.31658  -3.50131 
 C                    -1    6.01244  -2.43204  -1.488 
 H                    -1    5.06355  -1.86999   0.32991 
 C                    -1    5.61174   0.8506    3.755 
 C                    -1    6.55752   1.65159   1.69023 
 H                    -1    5.47918   1.26388  -0.09684 
 C                    -1    6.10652  -2.24058  -2.88574 
 H                    -1    5.35443  -1.16301  -4.57638 
 H                    -1    6.63929  -3.17577  -1.00421 
 C                    -1    6.61007   1.52076   3.09726 
 H                    -1    5.6368    0.73814   4.83603 
 H                    -1    7.34699   2.18698   1.17049 
 H                    -1    6.81024  -2.83022  -3.46624 
 H                    -1    7.43996   1.95142   3.65012 
 C                    -1    0.82744   4.48948  -1.13825 
 C                    -1   -0.25736   2.85102  -2.51851 
 C                    -1    0.32389   5.50137  -1.95561 
 H                    -1    1.42639   4.76771  -0.2786 
 C                    -1   -0.75232   3.85682  -3.34145 
 H                    -1   -0.53079   1.82144  -2.71815 
 C                    -1   -0.46011   5.19061  -3.06285 
 H                    -1    0.54641   6.53809  -1.71862 
 H                    -1   -1.37864   3.59473  -4.18971 
 H                    -1   -0.85051   5.98165  -3.69692 
 C                    -1    3.14155   3.31828   0.70808 
 C                    -1    1.54835   2.54133   2.3329 
 C                    -1    3.85126   3.97307   1.70883 
 H                    -1    3.50559   3.36279  -0.31548 
 C                    -1    2.26924   3.17905   3.34133 
 H                    -1    0.65677   1.97347   2.5794 
 C                    -1    3.4224    3.89544   3.03272 
 H                    -1    4.7524    4.525     1.45765 
 H                    -1    1.92962   3.10901   4.37111 
 H                    -1    3.98664   4.38925   3.81887 
 C                    -1   -0.54933  -3.74618   1.44682 
 C                    -1   -0.64383  -1.96605   3.05866 
 C                    -1   -1.46313  -4.47789   2.20565 
 H                    -1   -0.19139  -4.16842   0.51384 
 C                    -1   -1.54169  -2.70268   3.82536 
 H                    -1   -0.38472  -0.96029   3.37605 
 C                    -1   -1.95775  -3.96357   3.39945 
 H                    -1   -1.78959  -5.45264   1.85394 
 H                    -1   -1.93165  -2.28048   4.74724 
 H                    -1   -2.67024  -4.53306   3.98918 
 C                    -1    2.33984  -3.67519   0.06065 
 C                    -1    1.54474  -2.38323  -1.80618 
 C                    -1    2.97321  -4.55113  -0.81434 
 H                    -1    2.4182   -3.8402    1.13279 
 C                    -1    2.18627  -3.25197  -2.68724 
 H                    -1    1.01491  -1.51377  -2.18064 
 C                    -1    2.89822  -4.34014  -2.19222 
 H                    -1    3.538    -5.39223  -0.42206 
 H                    -1    2.14147  -3.06592  -3.75679 
 H                    -1    3.40448  -5.01737  -2.87435 
 
 NAtoms=    122 NQM=       27 NQMF=      95 NMMI=      0 NMMIF=      0
                NMic=       0 NMicF=      0.
                    Isotopes and Nuclear Properties:
 (Nuclear quadrupole moments (NQMom) in fm**2, nuclear magnetic moments (NMagM)
  in nuclear magnetons)

  Atom         1           2           3           4           5           6           7           8           9          10
 IAtWgt=           1          12          12          16          12           1           1           1           1          14
 AtmWgt=   1.0078250  12.0000000  12.0000000  15.9949146  12.0000000   1.0078250   1.0078250   1.0078250   1.0078250  14.0030740
 NucSpn=           1           0           0           0           0           1           1           1           1           2
 AtZEff=   0.0000000   0.0000000   0.0000000   0.0000000   0.0000000   0.0000000   0.0000000   0.0000000   0.0000000   0.0000000
 NQMom=    0.0000000   0.0000000   0.0000000   0.0000000   0.0000000   0.0000000   0.0000000   0.0000000   0.0000000   2.0440000
 NMagM=    2.7928460   0.0000000   0.0000000   0.0000000   0.0000000   2.7928460   2.7928460   2.7928460   2.7928460   0.4037610
 AtZNuc=   1.0000000   6.0000000   6.0000000   8.0000000   6.0000000   1.0000000   1.0000000   1.0000000   1.0000000   7.0000000

  Atom        11          12          13          14          15          16          17          18          19          20
 IAtWgt=          14          12           1           1          12           1           1          12          12          12
 AtmWgt=  14.0030740  12.0000000   1.0078250   1.0078250  12.0000000   1.0078250   1.0078250  12.0000000  12.0000000  12.0000000
 NucSpn=           2           0           1           1           0           1           1           0           0           0
 AtZEff=   0.0000000   0.0000000   0.0000000   0.0000000   0.0000000   0.0000000   0.0000000   0.0000000   0.0000000   0.0000000
 NQMom=    2.0440000   0.0000000   0.0000000   0.0000000   0.0000000   0.0000000   0.0000000   0.0000000   0.0000000   0.0000000
 NMagM=    0.4037610   0.0000000   2.7928460   2.7928460   0.0000000   2.7928460   2.7928460   0.0000000   0.0000000   0.0000000
 AtZNuc=   7.0000000   6.0000000   1.0000000   1.0000000   6.0000000   1.0000000   1.0000000   6.0000000   6.0000000   6.0000000

  Atom        21          22          23          24          25          26          27          28          29          30
 IAtWgt=          12          12          12          12          12          12           1           1           1           1
 AtmWgt=  12.0000000  12.0000000  12.0000000  12.0000000  12.0000000  12.0000000   1.0078250   1.0078250   1.0078250   1.0078250
 NucSpn=           0           0           0           0           0           0           1           1           1           1
 AtZEff=   0.0000000   0.0000000   0.0000000   0.0000000   0.0000000   0.0000000   0.0000000   0.0000000   0.0000000   0.0000000
 NQMom=    0.0000000   0.0000000   0.0000000   0.0000000   0.0000000   0.0000000   0.0000000   0.0000000   0.0000000   0.0000000
 NMagM=    0.0000000   0.0000000   0.0000000   0.0000000   0.0000000   0.0000000   2.7928460   2.7928460   2.7928460   2.7928460
 AtZNuc=   6.0000000   6.0000000   6.0000000   6.0000000   6.0000000   6.0000000   1.0000000   1.0000000   1.0000000   1.0000000

  Atom        31          32          33          34          35          36          37          38          39          40
 IAtWgt=           1           1           1           1           1           1           1           1           1           1
 AtmWgt=   1.0078250   1.0078250   1.0078250   1.0078250   1.0078250   1.0078250   1.0078250   1.0078250   1.0078250   1.0078250
 NucSpn=           1           1           1           1           1           1           1           1           1           1
 AtZEff=   0.0000000   0.0000000   0.0000000   0.0000000   0.0000000   0.0000000   0.0000000   0.0000000   0.0000000   0.0000000
 NQMom=    0.0000000   0.0000000   0.0000000   0.0000000   0.0000000   0.0000000   0.0000000   0.0000000   0.0000000   0.0000000
 NMagM=    2.7928460   2.7928460   2.7928460   2.7928460   2.7928460   2.7928460   2.7928460   2.7928460   2.7928460   2.7928460
 AtZNuc=   1.0000000   1.0000000   1.0000000   1.0000000   1.0000000   1.0000000   1.0000000   1.0000000   1.0000000   1.0000000

  Atom        41          42          43          44          45          46          47          48          49          50
 IAtWgt=           1           1           1         102          31          31          12          12          12          12
 AtmWgt=   1.0078250   1.0078250   1.0078250 101.9037000  30.9737634  30.9737634  12.0000000  12.0000000  12.0000000  12.0000000
 NucSpn=           1           1           1           0           1           1           0           0           0           0
 AtZEff=   0.0000000   0.0000000   0.0000000   0.0000000   0.0000000   0.0000000   0.0000000   0.0000000   0.0000000   0.0000000
 NQMom=    0.0000000   0.0000000   0.0000000   0.0000000   0.0000000   0.0000000   0.0000000   0.0000000   0.0000000   0.0000000
 NMagM=    2.7928460   2.7928460   2.7928460   0.0000000   1.1316000   1.1316000   0.0000000   0.0000000   0.0000000   0.0000000
 AtZNuc=   1.0000000   1.0000000   1.0000000  44.0000000  15.0000000  15.0000000   6.0000000   6.0000000   6.0000000   6.0000000

  Atom        51          52          53          54          55          56          57          58          59          60
 IAtWgt=          12          12          12          12          12          12          12          12           1          12
 AtmWgt=  12.0000000  12.0000000  12.0000000  12.0000000  12.0000000  12.0000000  12.0000000  12.0000000   1.0078250  12.0000000
 NucSpn=           0           0           0           0           0           0           0           0           1           0
 AtZEff=   0.0000000   0.0000000   0.0000000   0.0000000   0.0000000   0.0000000   0.0000000   0.0000000   0.0000000   0.0000000
 NQMom=    0.0000000   0.0000000   0.0000000   0.0000000   0.0000000   0.0000000   0.0000000   0.0000000   0.0000000   0.0000000
 NMagM=    0.0000000   0.0000000   0.0000000   0.0000000   0.0000000   0.0000000   0.0000000   0.0000000   2.7928460   0.0000000
 AtZNuc=   6.0000000   6.0000000   6.0000000   6.0000000   6.0000000   6.0000000   6.0000000   6.0000000   1.0000000   6.0000000

  Atom        61          62          63          64          65          66          67          68          69          70
 IAtWgt=          12           1          12          12           1          12          12           1          12          12
 AtmWgt=  12.0000000   1.0078250  12.0000000  12.0000000   1.0078250  12.0000000  12.0000000   1.0078250  12.0000000  12.0000000
 NucSpn=           0           1           0           0           1           0           0           1           0           0
 AtZEff=   0.0000000   0.0000000   0.0000000   0.0000000   0.0000000   0.0000000   0.0000000   0.0000000   0.0000000   0.0000000
 NQMom=    0.0000000   0.0000000   0.0000000   0.0000000   0.0000000   0.0000000   0.0000000   0.0000000   0.0000000   0.0000000
 NMagM=    0.0000000   2.7928460   0.0000000   0.0000000   2.7928460   0.0000000   0.0000000   2.7928460   0.0000000   0.0000000
 AtZNuc=   6.0000000   1.0000000   6.0000000   6.0000000   1.0000000   6.0000000   6.0000000   1.0000000   6.0000000   6.0000000

  Atom        71          72          73          74          75          76          77          78          79          80
 IAtWgt=           1          12          12           1          12           1           1          12           1           1
 AtmWgt=   1.0078250  12.0000000  12.0000000   1.0078250  12.0000000   1.0078250   1.0078250  12.0000000   1.0078250   1.0078250
 NucSpn=           1           0           0           1           0           1           1           0           1           1
 AtZEff=   0.0000000   0.0000000   0.0000000   0.0000000   0.0000000   0.0000000   0.0000000   0.0000000   0.0000000   0.0000000
 NQMom=    0.0000000   0.0000000   0.0000000   0.0000000   0.0000000   0.0000000   0.0000000   0.0000000   0.0000000   0.0000000
 NMagM=    2.7928460   0.0000000   0.0000000   2.7928460   0.0000000   2.7928460   2.7928460   0.0000000   2.7928460   2.7928460
 AtZNuc=   1.0000000   6.0000000   6.0000000   1.0000000   6.0000000   1.0000000   1.0000000   6.0000000   1.0000000   1.0000000

  Atom        81          82          83          84          85          86          87          88          89          90
 IAtWgt=           1           1          12          12          12           1          12           1          12           1
 AtmWgt=   1.0078250   1.0078250  12.0000000  12.0000000  12.0000000   1.0078250  12.0000000   1.0078250  12.0000000   1.0078250
 NucSpn=           1           1           0           0           0           1           0           1           0           1
 AtZEff=   0.0000000   0.0000000   0.0000000   0.0000000   0.0000000   0.0000000   0.0000000   0.0000000   0.0000000   0.0000000
 NQMom=    0.0000000   0.0000000   0.0000000   0.0000000   0.0000000   0.0000000   0.0000000   0.0000000   0.0000000   0.0000000
 NMagM=    2.7928460   2.7928460   0.0000000   0.0000000   0.0000000   2.7928460   0.0000000   2.7928460   0.0000000   2.7928460
 AtZNuc=   1.0000000   1.0000000   6.0000000   6.0000000   6.0000000   1.0000000   6.0000000   1.0000000   6.0000000   1.0000000

  Atom        91          92          93          94          95          96          97          98          99         100
 IAtWgt=           1           1          12          12          12           1          12           1          12           1
 AtmWgt=   1.0078250   1.0078250  12.0000000  12.0000000  12.0000000   1.0078250  12.0000000   1.0078250  12.0000000   1.0078250
 NucSpn=           1           1           0           0           0           1           0           1           0           1
 AtZEff=   0.0000000   0.0000000   0.0000000   0.0000000   0.0000000   0.0000000   0.0000000   0.0000000   0.0000000   0.0000000
 NQMom=    0.0000000   0.0000000   0.0000000   0.0000000   0.0000000   0.0000000   0.0000000   0.0000000   0.0000000   0.0000000
 NMagM=    2.7928460   2.7928460   0.0000000   0.0000000   0.0000000   2.7928460   0.0000000   2.7928460   0.0000000   2.7928460
 AtZNuc=   1.0000000   1.0000000   6.0000000   6.0000000   6.0000000   1.0000000   6.0000000   1.0000000   6.0000000   1.0000000

  Atom       101         102         103         104         105         106         107         108         109         110
 IAtWgt=           1           1          12          12          12           1          12           1          12           1
 AtmWgt=   1.0078250   1.0078250  12.0000000  12.0000000  12.0000000   1.0078250  12.0000000   1.0078250  12.0000000   1.0078250
 NucSpn=           1           1           0           0           0           1           0           1           0           1
 AtZEff=   0.0000000   0.0000000   0.0000000   0.0000000   0.0000000   0.0000000   0.0000000   0.0000000   0.0000000   0.0000000
 NQMom=    0.0000000   0.0000000   0.0000000   0.0000000   0.0000000   0.0000000   0.0000000   0.0000000   0.0000000   0.0000000
 NMagM=    2.7928460   2.7928460   0.0000000   0.0000000   0.0000000   2.7928460   0.0000000   2.7928460   0.0000000   2.7928460
 AtZNuc=   1.0000000   1.0000000   6.0000000   6.0000000   6.0000000   1.0000000   6.0000000   1.0000000   6.0000000   1.0000000

  Atom       111         112         113         114         115         116         117         118         119         120
 IAtWgt=           1           1          12          12          12           1          12           1          12           1
 AtmWgt=   1.0078250   1.0078250  12.0000000  12.0000000  12.0000000   1.0078250  12.0000000   1.0078250  12.0000000   1.0078250
 NucSpn=           1           1           0           0           0           1           0           1           0           1
 AtZEff=   0.0000000   0.0000000   0.0000000   0.0000000   0.0000000   0.0000000   0.0000000   0.0000000   0.0000000   0.0000000
 NQMom=    0.0000000   0.0000000   0.0000000   0.0000000   0.0000000   0.0000000   0.0000000   0.0000000   0.0000000   0.0000000
 NMagM=    2.7928460   2.7928460   0.0000000   0.0000000   0.0000000   2.7928460   0.0000000   2.7928460   0.0000000   2.7928460
 AtZNuc=   1.0000000   1.0000000   6.0000000   6.0000000   6.0000000   1.0000000   6.0000000   1.0000000   6.0000000   1.0000000

  Atom       121         122
 IAtWgt=           1           1
 AtmWgt=   1.0078250   1.0078250
 NucSpn=           1           1
 AtZEff=   0.0000000   0.0000000
 NQMom=    0.0000000   0.0000000
 NMagM=    2.7928460   2.7928460
 AtZNuc=   1.0000000   1.0000000
 Leave Link  101 at Wed Dec 19 17:02:09 2018, MaxMem=   402653184 cpu:         0.5
 (Enter /usr/local/apps/eb/gaussian/09-Intel-SSE4_2/g09/l103.exe)

 GradGradGradGradGradGradGradGradGradGradGradGradGradGradGradGradGradGrad
 Berny optimization.
 Initialization pass.
                           ----------------------------
                           !    Initial Parameters    !
                           ! (Angstroms and Degrees)  !
 --------------------------                            --------------------------
 ! Name  Definition              Value          Derivative Info.                !
 --------------------------------------------------------------------------------
 ! X1    R(1,-1)                -1.3205         Frozen                          !
 ! Y1    R(1,-2)                -0.7589         Frozen                          !
 ! Z1    R(1,-3)                -4.9702         Frozen                          !
 ! X2    R(2,-1)                -0.8371         Frozen                          !
 ! Y2    R(2,-2)                -0.675          Frozen                          !
 ! Z2    R(2,-3)                -3.9869         Frozen                          !
 ! X3    R(3,-1)                -1.9482         Frozen                          !
 ! Y3    R(3,-2)                -0.4472         Frozen                          !
 ! Z3    R(3,-3)                -2.9706         Frozen                          !
 ! X4    R(4,-1)                -2.6034         Frozen                          !
 ! Y4    R(4,-2)                 0.6234         Frozen                          !
 ! Z4    R(4,-3)                -3.0349         Frozen                          !
 ! X6    R(6,-1)                -0.279          Frozen                          !
 ! Y6    R(6,-2)                -1.5963         Frozen                          !
 ! Z6    R(6,-3)                -3.8126         Frozen                          !
 ! X7    R(7,-1)                -0.1441         Frozen                          !
 ! Y7    R(7,-2)                 0.1691         Frozen                          !
 ! Z7    R(7,-3)                -4.0164         Frozen                          !
 ! X8    R(8,-1)                -0.8753         Frozen                          !
 ! Y8    R(8,-2)                -0.2969         Frozen                          !
 ! Z8    R(8,-3)                -1.6278         Frozen                          !
 ! X9    R(9,-1)                -0.6415         Frozen                          !
 ! Y9    R(9,-2)                 0.7707         Frozen                          !
 ! Z9    R(9,-3)                 1.6384         Frozen                          !
 ! X10   R(10,-1)               -2.2203         Frozen                          !
 ! Y10   R(10,-2)                1.6704         Frozen                          !
 ! Z10   R(10,-3)               -0.3516         Frozen                          !
 ! X11   R(11,-1)               -2.4171         Frozen                          !
 ! Y11   R(11,-2)               -0.8775         Frozen                          !
 ! Z11   R(11,-3)                0.6005         Frozen                          !
 ! X12   R(12,-1)               -3.3827         Frozen                          !
 ! Y12   R(12,-2)                1.3855         Frozen                          !
 ! Z12   R(12,-3)                0.514          Frozen                          !
 ! X13   R(13,-1)               -1.9674         Frozen                          !
 ! Y13   R(13,-2)                2.6527         Frozen                          !
 ! Z13   R(13,-3)               -0.2619         Frozen                          !
 ! X14   R(14,-1)               -2.4708         Frozen                          !
 ! Y14   R(14,-2)                1.5104         Frozen                          !
 ! Z14   R(14,-3)               -1.3373         Frozen                          !
 ! X15   R(15,-1)               -3.6719         Frozen                          !
 ! Y15   R(15,-2)               -0.1191         Frozen                          !
 ! Z15   R(15,-3)                0.3914         Frozen                          !
 ! X16   R(16,-1)               -2.4885         Frozen                          !
 ! Y16   R(16,-2)               -1.7642         Frozen                          !
 ! Z16   R(16,-3)                0.1016         Frozen                          !
 ! X17   R(17,-1)               -2.3292         Frozen                          !
 ! Y17   R(17,-2)               -1.1247         Frozen                          !
 ! Z17   R(17,-3)                1.5836         Frozen                          !
 ! X44   R(44,-1)               -0.6219         Frozen                          !
 ! Y44   R(44,-2)                0.2681         Frozen                          !
 ! Z44   R(44,-3)                0.0645         Frozen                          !
 ! X45   R(45,-1)                1.072          Frozen                          !
 ! Y45   R(45,-2)                1.7187         Frozen                          !
 ! Z45   R(45,-3)               -0.3475         Frozen                          !
 ! X46   R(46,-1)                0.8115         Frozen                          !
 ! Y46   R(46,-2)               -1.3718         Frozen                          !
 ! Z46   R(46,-3)                0.709          Frozen                          !
 ! X47   R(47,-1)                0.5553         Frozen                          !
 ! Y47   R(47,-2)                3.145          Frozen                          !
 ! Z47   R(47,-3)               -1.4152         Frozen                          !
 ! X48   R(48,-1)                1.9799         Frozen                          !
 ! Y48   R(48,-2)                2.5938         Frozen                          !
 ! Z48   R(48,-3)                1.0065         Frozen                          !
 ! X49   R(49,-1)                2.4926         Frozen                          !
 ! Y49   R(49,-2)                0.9322         Frozen                          !
 ! Z49   R(49,-3)               -1.2435         Frozen                          !
 ! X50   R(50,-1)               -0.1154         Frozen                          !
 ! Y50   R(50,-2)               -2.4829         Frozen                          !
 ! Z50   R(50,-3)                1.8641         Frozen                          !
 ! X51   R(51,-1)                1.6041         Frozen                          !
 ! Y51   R(51,-2)               -2.5888         Frozen                          !
 ! Z51   R(51,-3)               -0.4307         Frozen                          !
 ! X52   R(52,-1)                2.341          Frozen                          !
 ! Y52   R(52,-2)               -0.8059         Frozen                          !
 ! Z52   R(52,-3)                1.5998         Frozen                          !
 ! X53   R(53,-1)                3.3358         Frozen                          !
 ! Y53   R(53,-2)                0.0463         Frozen                          !
 ! Z53   R(53,-3)               -0.5863         Frozen                          !
 ! X54   R(54,-1)                2.6004         Frozen                          !
 ! Y54   R(54,-2)                1.0916         Frozen                          !
 ! Z54   R(54,-3)               -2.6508         Frozen                          !
 ! X55   R(55,-1)                3.3369         Frozen                          !
 ! Y55   R(55,-2)               -0.1251         Frozen                          !
 ! Z55   R(55,-3)                0.9081         Frozen                          !
 ! X56   R(56,-1)                2.4631         Frozen                          !
 ! Y56   R(56,-2)               -0.9793         Frozen                          !
 ! Z56   R(56,-3)                3.0032         Frozen                          !
 ! X57   R(57,-1)                4.2846         Frozen                          !
 ! Y57   R(57,-2)               -0.7239         Frozen                          !
 ! Z57   R(57,-3)               -1.343          Frozen                          !
 ! X58   R(58,-1)                3.5138         Frozen                          !
 ! Y58   R(58,-2)                0.3842         Frozen                          !
 ! Z58   R(58,-3)               -3.3819         Frozen                          !
 ! X59   R(59,-1)                1.9494         Frozen                          !
 ! Y59   R(59,-2)                1.7938         Frozen                          !
 ! Z59   R(59,-3)               -3.1602         Frozen                          !
 ! X60   R(60,-1)                4.4568         Frozen                          !
 ! Y60   R(60,-2)                0.4205         Frozen                          !
 ! Z60   R(60,-3)                1.6261         Frozen                          !
 ! X61   R(61,-1)                3.5092         Frozen                          !
 ! Y61   R(61,-2)               -0.4459         Frozen                          !
 ! Z61   R(61,-3)                3.7043         Frozen                          !
 ! X62   R(62,-1)                1.719          Frozen                          !
 ! Y62   R(62,-2)               -1.5535         Frozen                          !
 ! Z62   R(62,-3)                3.5411         Frozen                          !
 ! X63   R(63,-1)                4.375          Frozen                          !
 ! Y63   R(63,-2)               -0.5469         Frozen                          !
 ! Z63   R(63,-3)               -2.7509         Frozen                          !
 ! X64   R(64,-1)                5.1306         Frozen                          !
 ! Y64   R(64,-2)               -1.6949         Frozen                          !
 ! Z64   R(64,-3)               -0.7383         Frozen                          !
 ! X65   R(65,-1)                3.5858         Frozen                          !
 ! Y65   R(65,-2)                0.5276         Frozen                          !
 ! Z65   R(65,-3)               -4.4572         Frozen                          !
 ! X66   R(66,-1)                4.5255         Frozen                          !
 ! Y66   R(66,-2)                0.2801         Frozen                          !
 ! Z66   R(66,-3)                3.039          Frozen                          !
 ! X67   R(67,-1)                5.5101         Frozen                          !
 ! Y67   R(67,-2)                1.1256         Frozen                          !
 ! Z67   R(67,-3)                0.9778         Frozen                          !
 ! X68   R(68,-1)                3.5755         Frozen                          !
 ! Y68   R(68,-2)               -0.5857         Frozen                          !
 ! Z68   R(68,-3)                4.7804         Frozen                          !
 ! X69   R(69,-1)                5.3022         Frozen                          !
 ! Y69   R(69,-2)               -1.3166         Frozen                          !
 ! Z69   R(69,-3)               -3.5013         Frozen                          !
 ! X70   R(70,-1)                6.0124         Frozen                          !
 ! Y70   R(70,-2)               -2.432          Frozen                          !
 ! Z70   R(70,-3)               -1.488          Frozen                          !
 ! X71   R(71,-1)                5.0636         Frozen                          !
 ! Y71   R(71,-2)               -1.87           Frozen                          !
 ! Z71   R(71,-3)                0.3299         Frozen                          !
 ! X72   R(72,-1)                5.6117         Frozen                          !
 ! Y72   R(72,-2)                0.8506         Frozen                          !
 ! Z72   R(72,-3)                3.755          Frozen                          !
 ! X73   R(73,-1)                6.5575         Frozen                          !
 ! Y73   R(73,-2)                1.6516         Frozen                          !
 ! Z73   R(73,-3)                1.6902         Frozen                          !
 ! X74   R(74,-1)                5.4792         Frozen                          !
 ! Y74   R(74,-2)                1.2639         Frozen                          !
 ! Z74   R(74,-3)               -0.0968         Frozen                          !
 ! X75   R(75,-1)                6.1065         Frozen                          !
 ! Y75   R(75,-2)               -2.2406         Frozen                          !
 ! Z75   R(75,-3)               -2.8857         Frozen                          !
 ! X76   R(76,-1)                5.3544         Frozen                          !
 ! Y76   R(76,-2)               -1.163          Frozen                          !
 ! Z76   R(76,-3)               -4.5764         Frozen                          !
 ! X77   R(77,-1)                6.6393         Frozen                          !
 ! Y77   R(77,-2)               -3.1758         Frozen                          !
 ! Z77   R(77,-3)               -1.0042         Frozen                          !
 ! X78   R(78,-1)                6.6101         Frozen                          !
 ! Y78   R(78,-2)                1.5208         Frozen                          !
 ! Z78   R(78,-3)                3.0973         Frozen                          !
 ! X79   R(79,-1)                5.6368         Frozen                          !
 ! Y79   R(79,-2)                0.7381         Frozen                          !
 ! Z79   R(79,-3)                4.836          Frozen                          !
 ! X80   R(80,-1)                7.347          Frozen                          !
 ! Y80   R(80,-2)                2.187          Frozen                          !
 ! Z80   R(80,-3)                1.1705         Frozen                          !
 ! X81   R(81,-1)                6.8102         Frozen                          !
 ! Y81   R(81,-2)               -2.8302         Frozen                          !
 ! Z81   R(81,-3)               -3.4662         Frozen                          !
 ! X82   R(82,-1)                7.44           Frozen                          !
 ! Y82   R(82,-2)                1.9514         Frozen                          !
 ! Z82   R(82,-3)                3.6501         Frozen                          !
 ! X83   R(83,-1)                0.8274         Frozen                          !
 ! Y83   R(83,-2)                4.4895         Frozen                          !
 ! Z83   R(83,-3)               -1.1382         Frozen                          !
 ! X84   R(84,-1)               -0.2574         Frozen                          !
 ! Y84   R(84,-2)                2.851          Frozen                          !
 ! Z84   R(84,-3)               -2.5185         Frozen                          !
 ! X85   R(85,-1)                0.3239         Frozen                          !
 ! Y85   R(85,-2)                5.5014         Frozen                          !
 ! Z85   R(85,-3)               -1.9556         Frozen                          !
 ! X86   R(86,-1)                1.4264         Frozen                          !
 ! Y86   R(86,-2)                4.7677         Frozen                          !
 ! Z86   R(86,-3)               -0.2786         Frozen                          !
 ! X87   R(87,-1)               -0.7523         Frozen                          !
 ! Y87   R(87,-2)                3.8568         Frozen                          !
 ! Z87   R(87,-3)               -3.3415         Frozen                          !
 ! X88   R(88,-1)               -0.5308         Frozen                          !
 ! Y88   R(88,-2)                1.8214         Frozen                          !
 ! Z88   R(88,-3)               -2.7182         Frozen                          !
 ! X89   R(89,-1)               -0.4601         Frozen                          !
 ! Y89   R(89,-2)                5.1906         Frozen                          !
 ! Z89   R(89,-3)               -3.0628         Frozen                          !
 ! X90   R(90,-1)                0.5464         Frozen                          !
 ! Y90   R(90,-2)                6.5381         Frozen                          !
 ! Z90   R(90,-3)               -1.7186         Frozen                          !
 ! X91   R(91,-1)               -1.3786         Frozen                          !
 ! Y91   R(91,-2)                3.5947         Frozen                          !
 ! Z91   R(91,-3)               -4.1897         Frozen                          !
 ! X92   R(92,-1)               -0.8505         Frozen                          !
 ! Y92   R(92,-2)                5.9817         Frozen                          !
 ! Z92   R(92,-3)               -3.6969         Frozen                          !
 ! X93   R(93,-1)                3.1416         Frozen                          !
 ! Y93   R(93,-2)                3.3183         Frozen                          !
 ! Z93   R(93,-3)                0.7081         Frozen                          !
 ! X94   R(94,-1)                1.5483         Frozen                          !
 ! Y94   R(94,-2)                2.5413         Frozen                          !
 ! Z94   R(94,-3)                2.3329         Frozen                          !
 ! X95   R(95,-1)                3.8513         Frozen                          !
 ! Y95   R(95,-2)                3.9731         Frozen                          !
 ! Z95   R(95,-3)                1.7088         Frozen                          !
 ! X96   R(96,-1)                3.5056         Frozen                          !
 ! Y96   R(96,-2)                3.3628         Frozen                          !
 ! Z96   R(96,-3)               -0.3155         Frozen                          !
 ! X97   R(97,-1)                2.2692         Frozen                          !
 ! Y97   R(97,-2)                3.179          Frozen                          !
 ! Z97   R(97,-3)                3.3413         Frozen                          !
 ! X98   R(98,-1)                0.6568         Frozen                          !
 ! Y98   R(98,-2)                1.9735         Frozen                          !
 ! Z98   R(98,-3)                2.5794         Frozen                          !
 ! X99   R(99,-1)                3.4224         Frozen                          !
 ! Y99   R(99,-2)                3.8954         Frozen                          !
 ! Z99   R(99,-3)                3.0327         Frozen                          !
 ! X100  R(100,-1)               4.7524         Frozen                          !
 ! Y100  R(100,-2)               4.525          Frozen                          !
 ! Z100  R(100,-3)               1.4576         Frozen                          !
 ! X101  R(101,-1)               1.9296         Frozen                          !
 ! Y101  R(101,-2)               3.109          Frozen                          !
 ! Z101  R(101,-3)               4.3711         Frozen                          !
 ! X102  R(102,-1)               3.9866         Frozen                          !
 ! Y102  R(102,-2)               4.3892         Frozen                          !
 ! Z102  R(102,-3)               3.8189         Frozen                          !
 ! X103  R(103,-1)              -0.5493         Frozen                          !
 ! Y103  R(103,-2)              -3.7462         Frozen                          !
 ! Z103  R(103,-3)               1.4468         Frozen                          !
 ! X104  R(104,-1)              -0.6438         Frozen                          !
 ! Y104  R(104,-2)              -1.9661         Frozen                          !
 ! Z104  R(104,-3)               3.0587         Frozen                          !
 ! X105  R(105,-1)              -1.4631         Frozen                          !
 ! Y105  R(105,-2)              -4.4779         Frozen                          !
 ! Z105  R(105,-3)               2.2056         Frozen                          !
 ! X106  R(106,-1)              -0.1914         Frozen                          !
 ! Y106  R(106,-2)              -4.1684         Frozen                          !
 ! Z106  R(106,-3)               0.5138         Frozen                          !
 ! X107  R(107,-1)              -1.5417         Frozen                          !
 ! Y107  R(107,-2)              -2.7027         Frozen                          !
 ! Z107  R(107,-3)               3.8254         Frozen                          !
 ! X108  R(108,-1)              -0.3847         Frozen                          !
 ! Y108  R(108,-2)              -0.9603         Frozen                          !
 ! Z108  R(108,-3)               3.3761         Frozen                          !
 ! X109  R(109,-1)              -1.9578         Frozen                          !
 ! Y109  R(109,-2)              -3.9636         Frozen                          !
 ! Z109  R(109,-3)               3.3994         Frozen                          !
 ! X110  R(110,-1)              -1.7896         Frozen                          !
 ! Y110  R(110,-2)              -5.4526         Frozen                          !
 ! Z110  R(110,-3)               1.8539         Frozen                          !
 ! X111  R(111,-1)              -1.9317         Frozen                          !
 ! Y111  R(111,-2)              -2.2805         Frozen                          !
 ! Z111  R(111,-3)               4.7472         Frozen                          !
 ! X112  R(112,-1)              -2.6702         Frozen                          !
 ! Y112  R(112,-2)              -4.5331         Frozen                          !
 ! Z112  R(112,-3)               3.9892         Frozen                          !
 ! X113  R(113,-1)               2.3398         Frozen                          !
 ! Y113  R(113,-2)              -3.6752         Frozen                          !
 ! Z113  R(113,-3)               0.0607         Frozen                          !
 ! X114  R(114,-1)               1.5447         Frozen                          !
 ! Y114  R(114,-2)              -2.3832         Frozen                          !
 ! Z114  R(114,-3)              -1.8062         Frozen                          !
 ! X115  R(115,-1)               2.9732         Frozen                          !
 ! Y115  R(115,-2)              -4.5511         Frozen                          !
 ! Z115  R(115,-3)              -0.8143         Frozen                          !
 ! X116  R(116,-1)               2.4182         Frozen                          !
 ! Y116  R(116,-2)              -3.8402         Frozen                          !
 ! Z116  R(116,-3)               1.1328         Frozen                          !
 ! X117  R(117,-1)               2.1863         Frozen                          !
 ! Y117  R(117,-2)              -3.252          Frozen                          !
 ! Z117  R(117,-3)              -2.6872         Frozen                          !
 ! X118  R(118,-1)               1.0149         Frozen                          !
 ! Y118  R(118,-2)              -1.5138         Frozen                          !
 ! Z118  R(118,-3)              -2.1806         Frozen                          !
 ! X119  R(119,-1)               2.8982         Frozen                          !
 ! Y119  R(119,-2)              -4.3401         Frozen                          !
 ! Z119  R(119,-3)              -2.1922         Frozen                          !
 ! X120  R(120,-1)               3.538          Frozen                          !
 ! Y120  R(120,-2)              -5.3922         Frozen                          !
 ! Z120  R(120,-3)              -0.4221         Frozen                          !
 ! X121  R(121,-1)               2.1415         Frozen                          !
 ! Y121  R(121,-2)              -3.0659         Frozen                          !
 ! Z121  R(121,-3)              -3.7568         Frozen                          !
 ! X122  R(122,-1)               3.4045         Frozen                          !
 ! Y122  R(122,-2)              -5.0174         Frozen                          !
 ! Z122  R(122,-3)              -2.8743         Frozen                          !
 ! R1    R(3,5)                  1.5275         estimate D2E/DX2                !
 ! R2    R(5,22)                 1.3988         estimate D2E/DX2                !
 ! R3    R(5,23)                 1.3988         estimate D2E/DX2                !
 ! R4    R(12,18)                1.5398         estimate D2E/DX2                !
 ! R5    R(12,19)                1.5398         estimate D2E/DX2                !
 ! R6    R(15,20)                1.5398         estimate D2E/DX2                !
 ! R7    R(15,21)                1.5398         estimate D2E/DX2                !
 ! R8    R(18,32)                1.1106         estimate D2E/DX2                !
 ! R9    R(18,33)                1.1106         estimate D2E/DX2                !
 ! R10   R(18,34)                1.1106         estimate D2E/DX2                !
 ! R11   R(19,35)                1.1106         estimate D2E/DX2                !
 ! R12   R(19,36)                1.1106         estimate D2E/DX2                !
 ! R13   R(19,37)                1.1106         estimate D2E/DX2                !
 ! R14   R(20,31)                1.1966         estimate D2E/DX2                !
 ! R15   R(20,38)                1.1106         estimate D2E/DX2                !
 ! R16   R(20,39)                1.1106         estimate D2E/DX2                !
 ! R17   R(20,40)                1.1106         estimate D2E/DX2                !
 ! R18   R(21,41)                1.1106         estimate D2E/DX2                !
 ! R19   R(21,42)                1.1106         estimate D2E/DX2                !
 ! R20   R(21,43)                1.1106         estimate D2E/DX2                !
 ! R21   R(22,26)                1.3988         estimate D2E/DX2                !
 ! R22   R(22,27)                1.0873         estimate D2E/DX2                !
 ! R23   R(23,25)                1.3988         estimate D2E/DX2                !
 ! R24   R(23,31)                1.0873         estimate D2E/DX2                !
 ! R25   R(24,25)                1.3988         estimate D2E/DX2                !
 ! R26   R(24,26)                1.3988         estimate D2E/DX2                !
 ! R27   R(24,29)                1.0873         estimate D2E/DX2                !
 ! R28   R(25,30)                1.0873         estimate D2E/DX2                !
 ! R29   R(26,28)                1.0873         estimate D2E/DX2                !
 ! R30   R(31,40)                0.8306         estimate D2E/DX2                !
 ! A1    A(2,3,5)              106.2928         estimate D2E/DX2                !
 ! A2    A(4,3,5)              135.3334         estimate D2E/DX2                !
 ! A3    A(3,5,22)             120.0            estimate D2E/DX2                !
 ! A4    A(3,5,23)             120.0            estimate D2E/DX2                !
 ! A5    A(22,5,23)            120.0            estimate D2E/DX2                !
 ! A6    A(10,12,18)           110.1186         estimate D2E/DX2                !
 ! A7    A(10,12,19)           110.9856         estimate D2E/DX2                !
 ! A8    A(15,12,18)           110.1188         estimate D2E/DX2                !
 ! A9    A(15,12,19)           110.9853         estimate D2E/DX2                !
 ! A10   A(18,12,19)           107.7847         estimate D2E/DX2                !
 ! A11   A(11,15,20)           109.5118         estimate D2E/DX2                !
 ! A12   A(11,15,21)           109.5667         estimate D2E/DX2                !
 ! A13   A(12,15,20)           109.5121         estimate D2E/DX2                !
 ! A14   A(12,15,21)           109.5672         estimate D2E/DX2                !
 ! A15   A(20,15,21)           109.3624         estimate D2E/DX2                !
 ! A16   A(12,18,32)           109.9539         estimate D2E/DX2                !
 ! A17   A(12,18,33)           109.9543         estimate D2E/DX2                !
 ! A18   A(12,18,34)           109.9543         estimate D2E/DX2                !
 ! A19   A(32,18,33)           108.9841         estimate D2E/DX2                !
 ! A20   A(32,18,34)           108.9841         estimate D2E/DX2                !
 ! A21   A(33,18,34)           108.9838         estimate D2E/DX2                !
 ! A22   A(12,19,35)           109.9539         estimate D2E/DX2                !
 ! A23   A(12,19,36)           109.9543         estimate D2E/DX2                !
 ! A24   A(12,19,37)           109.9543         estimate D2E/DX2                !
 ! A25   A(35,19,36)           108.9842         estimate D2E/DX2                !
 ! A26   A(35,19,37)           108.9841         estimate D2E/DX2                !
 ! A27   A(36,19,37)           108.9838         estimate D2E/DX2                !
 ! A28   A(15,20,31)           118.8772         estimate D2E/DX2                !
 ! A29   A(15,20,38)           109.9539         estimate D2E/DX2                !
 ! A30   A(15,20,39)           109.9543         estimate D2E/DX2                !
 ! A31   A(15,20,40)           109.9542         estimate D2E/DX2                !
 ! A32   A(31,20,38)            67.497          estimate D2E/DX2                !
 ! A33   A(31,20,39)           129.1629         estimate D2E/DX2                !
 ! A34   A(38,20,39)           108.9842         estimate D2E/DX2                !
 ! A35   A(38,20,40)           108.9842         estimate D2E/DX2                !
 ! A36   A(39,20,40)           108.9838         estimate D2E/DX2                !
 ! A37   A(15,21,41)           109.9539         estimate D2E/DX2                !
 ! A38   A(15,21,42)           109.9542         estimate D2E/DX2                !
 ! A39   A(15,21,43)           109.9542         estimate D2E/DX2                !
 ! A40   A(41,21,42)           108.9842         estimate D2E/DX2                !
 ! A41   A(41,21,43)           108.9841         estimate D2E/DX2                !
 ! A42   A(42,21,43)           108.9838         estimate D2E/DX2                !
 ! A43   A(5,22,26)            120.0            estimate D2E/DX2                !
 ! A44   A(5,22,27)            120.0            estimate D2E/DX2                !
 ! A45   A(26,22,27)           120.0            estimate D2E/DX2                !
 ! A46   A(5,23,25)            120.0            estimate D2E/DX2                !
 ! A47   A(5,23,31)            120.0            estimate D2E/DX2                !
 ! A48   A(25,23,31)           120.0            estimate D2E/DX2                !
 ! A49   A(25,24,26)           120.0            estimate D2E/DX2                !
 ! A50   A(25,24,29)           120.0            estimate D2E/DX2                !
 ! A51   A(26,24,29)           120.0            estimate D2E/DX2                !
 ! A52   A(23,25,24)           120.0            estimate D2E/DX2                !
 ! A53   A(23,25,30)           120.0            estimate D2E/DX2                !
 ! A54   A(24,25,30)           120.0            estimate D2E/DX2                !
 ! A55   A(22,26,24)           120.0            estimate D2E/DX2                !
 ! A56   A(22,26,28)           120.0            estimate D2E/DX2                !
 ! A57   A(24,26,28)           120.0            estimate D2E/DX2                !
 ! A58   A(20,31,23)           123.4922         estimate D2E/DX2                !
 ! A59   A(23,31,40)           130.4868         estimate D2E/DX2                !
 ! D1    D(1,2,3,5)            117.4394         estimate D2E/DX2                !
 ! D2    D(6,2,3,5)             -0.7837         estimate D2E/DX2                !
 ! D3    D(7,2,3,5)           -124.5375         estimate D2E/DX2                !
 ! D4    D(2,3,5,22)            26.4102         estimate D2E/DX2                !
 ! D5    D(2,3,5,23)          -153.5898         estimate D2E/DX2                !
 ! D6    D(4,3,5,22)          -149.5829         estimate D2E/DX2                !
 ! D7    D(4,3,5,23)            30.4171         estimate D2E/DX2                !
 ! D8    D(3,5,22,26)         -180.0            estimate D2E/DX2                !
 ! D9    D(3,5,22,27)            0.0            estimate D2E/DX2                !
 ! D10   D(23,5,22,26)           0.0            estimate D2E/DX2                !
 ! D11   D(23,5,22,27)         180.0            estimate D2E/DX2                !
 ! D12   D(3,5,23,25)         -180.0            estimate D2E/DX2                !
 ! D13   D(3,5,23,31)           -0.0001         estimate D2E/DX2                !
 ! D14   D(22,5,23,25)           0.0001         estimate D2E/DX2                !
 ! D15   D(22,5,23,31)         180.0            estimate D2E/DX2                !
 ! D16   D(13,10,12,18)         63.1992         estimate D2E/DX2                !
 ! D17   D(13,10,12,19)        -56.0697         estimate D2E/DX2                !
 ! D18   D(14,10,12,18)        -54.056          estimate D2E/DX2                !
 ! D19   D(14,10,12,19)       -173.3248         estimate D2E/DX2                !
 ! D20   D(44,10,12,18)       -169.4886         estimate D2E/DX2                !
 ! D21   D(44,10,12,19)         71.2425         estimate D2E/DX2                !
 ! D22   D(16,11,15,20)        -33.1517         estimate D2E/DX2                !
 ! D23   D(16,11,15,21)         86.7984         estimate D2E/DX2                !
 ! D24   D(17,11,15,20)       -147.8325         estimate D2E/DX2                !
 ! D25   D(17,11,15,21)        -27.8825         estimate D2E/DX2                !
 ! D26   D(44,11,15,20)         93.0244         estimate D2E/DX2                !
 ! D27   D(44,11,15,21)       -147.0256         estimate D2E/DX2                !
 ! D28   D(10,12,15,20)        -70.032          estimate D2E/DX2                !
 ! D29   D(10,12,15,21)        170.0175         estimate D2E/DX2                !
 ! D30   D(18,12,15,11)        169.5356         estimate D2E/DX2                !
 ! D31   D(18,12,15,20)         49.5613         estimate D2E/DX2                !
 ! D32   D(18,12,15,21)        -70.3893         estimate D2E/DX2                !
 ! D33   D(19,12,15,11)        -71.1957         estimate D2E/DX2                !
 ! D34   D(19,12,15,20)        168.83           estimate D2E/DX2                !
 ! D35   D(19,12,15,21)         48.8794         estimate D2E/DX2                !
 ! D36   D(10,12,18,32)        -64.3542         estimate D2E/DX2                !
 ! D37   D(10,12,18,33)        175.6458         estimate D2E/DX2                !
 ! D38   D(10,12,18,34)         55.6459         estimate D2E/DX2                !
 ! D39   D(15,12,18,32)        178.0488         estimate D2E/DX2                !
 ! D40   D(15,12,18,33)         58.0487         estimate D2E/DX2                !
 ! D41   D(15,12,18,34)        -61.9512         estimate D2E/DX2                !
 ! D42   D(19,12,18,32)         56.8475         estimate D2E/DX2                !
 ! D43   D(19,12,18,33)        -63.1526         estimate D2E/DX2                !
 ! D44   D(19,12,18,34)        176.8475         estimate D2E/DX2                !
 ! D45   D(10,12,19,35)         60.5081         estimate D2E/DX2                !
 ! D46   D(10,12,19,36)        -59.492          estimate D2E/DX2                !
 ! D47   D(10,12,19,37)       -179.4918         estimate D2E/DX2                !
 ! D48   D(15,12,19,35)        179.1898         estimate D2E/DX2                !
 ! D49   D(15,12,19,36)         59.1897         estimate D2E/DX2                !
 ! D50   D(15,12,19,37)        -60.8101         estimate D2E/DX2                !
 ! D51   D(18,12,19,35)        -60.151          estimate D2E/DX2                !
 ! D52   D(18,12,19,36)        179.8489         estimate D2E/DX2                !
 ! D53   D(18,12,19,37)         59.849          estimate D2E/DX2                !
 ! D54   D(11,15,20,31)         29.4115         estimate D2E/DX2                !
 ! D55   D(11,15,20,38)        -45.2356         estimate D2E/DX2                !
 ! D56   D(11,15,20,39)       -165.2357         estimate D2E/DX2                !
 ! D57   D(11,15,20,40)         74.7645         estimate D2E/DX2                !
 ! D58   D(12,15,20,31)        149.2605         estimate D2E/DX2                !
 ! D59   D(12,15,20,38)         74.6134         estimate D2E/DX2                !
 ! D60   D(12,15,20,39)        -45.3867         estimate D2E/DX2                !
 ! D61   D(12,15,20,40)       -165.3865         estimate D2E/DX2                !
 ! D62   D(21,15,20,31)        -90.6636         estimate D2E/DX2                !
 ! D63   D(21,15,20,38)       -165.3107         estimate D2E/DX2                !
 ! D64   D(21,15,20,39)         74.6892         estimate D2E/DX2                !
 ! D65   D(21,15,20,40)        -45.3106         estimate D2E/DX2                !
 ! D66   D(11,15,21,41)         19.8224         estimate D2E/DX2                !
 ! D67   D(11,15,21,42)       -100.1777         estimate D2E/DX2                !
 ! D68   D(11,15,21,43)        139.8225         estimate D2E/DX2                !
 ! D69   D(12,15,21,41)       -100.0941         estimate D2E/DX2                !
 ! D70   D(12,15,21,42)        139.9058         estimate D2E/DX2                !
 ! D71   D(12,15,21,43)         19.9059         estimate D2E/DX2                !
 ! D72   D(20,15,21,41)        139.8638         estimate D2E/DX2                !
 ! D73   D(20,15,21,42)         19.8637         estimate D2E/DX2                !
 ! D74   D(20,15,21,43)       -100.1361         estimate D2E/DX2                !
 ! D75   D(15,20,31,23)        -34.3936         estimate D2E/DX2                !
 ! D76   D(38,20,31,23)         66.7556         estimate D2E/DX2                !
 ! D77   D(39,20,31,23)        163.4579         estimate D2E/DX2                !
 ! D78   D(5,22,26,24)          -0.0001         estimate D2E/DX2                !
 ! D79   D(5,22,26,28)         180.0            estimate D2E/DX2                !
 ! D80   D(27,22,26,24)        180.0            estimate D2E/DX2                !
 ! D81   D(27,22,26,28)          0.0            estimate D2E/DX2                !
 ! D82   D(5,23,25,24)          -0.0001         estimate D2E/DX2                !
 ! D83   D(5,23,25,30)         180.0            estimate D2E/DX2                !
 ! D84   D(31,23,25,24)       -180.0            estimate D2E/DX2                !
 ! D85   D(31,23,25,30)          0.0001         estimate D2E/DX2                !
 ! D86   D(5,23,31,20)         -76.143          estimate D2E/DX2                !
 ! D87   D(5,23,31,40)        -158.1154         estimate D2E/DX2                !
 ! D88   D(25,23,31,20)        103.8569         estimate D2E/DX2                !
 ! D89   D(25,23,31,40)         21.8845         estimate D2E/DX2                !
 ! D90   D(26,24,25,23)          0.0            estimate D2E/DX2                !
 ! D91   D(26,24,25,30)        180.0            estimate D2E/DX2                !
 ! D92   D(29,24,25,23)       -179.9999         estimate D2E/DX2                !
 ! D93   D(29,24,25,30)          0.0            estimate D2E/DX2                !
 ! D94   D(25,24,26,22)          0.0001         estimate D2E/DX2                !
 ! D95   D(25,24,26,28)       -180.0            estimate D2E/DX2                !
 ! D96   D(29,24,26,22)       -180.0            estimate D2E/DX2                !
 ! D97   D(29,24,26,28)         -0.0001         estimate D2E/DX2                !
 --------------------------------------------------------------------------------
 Trust Radius=3.00D-01 FncErr=1.00D-07 GrdErr=1.00D-07
 Number of steps in this run=    481 maximum allowed number of steps=    732.
 GradGradGradGradGradGradGradGradGradGradGradGradGradGradGradGradGradGrad

 Leave Link  103 at Wed Dec 19 17:02:09 2018, MaxMem=   402653184 cpu:         0.0
 (Enter /usr/local/apps/eb/gaussian/09-Intel-SSE4_2/g09/l202.exe)
 Symmetry turned off by external request.
 Stoichiometry    C58H58N2OP2Ru
 Framework group  C1[X(C58H58N2OP2Ru)]
 Deg. of freedom   360
 Full point group                 C1      NOp   1
                          Input orientation:                          
 ---------------------------------------------------------------------
 Center     Atomic      Atomic             Coordinates (Angstroms)
 Number     Number       Type             X           Y           Z
 ---------------------------------------------------------------------
      1          1           0       -1.320540   -0.758900   -4.970190
      2          6           0       -0.837100   -0.675040   -3.986930
      3          6           0       -1.948180   -0.447200   -2.970550
      4          8           0       -2.603350    0.623400   -3.034910
      5          6           0       -1.915132   -1.645370   -2.023710
      6          1           0       -0.278980   -1.596320   -3.812640
      7          1           0       -0.144060    0.169100   -4.016420
      8          1           0       -0.875280   -0.296890   -1.627820
      9          1           0       -0.641540    0.770710    1.638350
     10          7           0       -2.220270    1.670360   -0.351560
     11          7           0       -2.417080   -0.877530    0.600510
     12          6           0       -3.382720    1.385510    0.513990
     13          1           0       -1.967410    2.652710   -0.261880
     14          1           0       -2.470770    1.510400   -1.337340
     15          6           0       -3.671900   -0.119080    0.391430
     16          1           0       -2.488540   -1.764190    0.101630
     17          1           0       -2.329160   -1.124670    1.583590
     18          6           0       -4.603341    2.199257    0.046259
     19          6           0       -3.090569    1.773659    1.975106
     20          6           0       -4.228920   -0.423119   -1.011482
     21          6           0       -4.707723   -0.533251    1.452753
     22          6           0       -0.722535   -2.349885   -1.828531
     23          6           0       -3.077464   -2.038108   -1.351799
     24          6           0       -1.854602   -3.839875   -0.289529
     25          6           0       -3.047199   -3.135360   -0.484708
     26          6           0       -0.692270   -3.447138   -0.961441
     27          1           0        0.180940   -2.044613   -2.350804
     28          1           0        0.234729   -3.994753   -0.809730
     29          1           0       -1.831078   -4.692763    0.384455
     30          1           0       -3.950674   -3.440632    0.037565
     31          1           0       -4.004463   -1.490492   -1.503510
     32          1           0       -4.404622    3.285009    0.168963
     33          1           0       -5.495159    1.924873    0.648552
     34          1           0       -4.811589    1.988796   -1.024132
     35          1           0       -2.869920    2.860061    2.041785
     36          1           0       -2.214797    1.203404    2.350892
     37          1           0       -3.971261    1.544141    2.611583
     38          1           0       -3.410672   -0.381924   -1.761265
     39          1           0       -5.004421    0.324560   -1.281588
     40          1           0       -4.682986   -1.436512   -1.027555
     41          1           0       -4.196111   -1.007743    2.316762
     42          1           0       -5.427940   -1.257675    1.017002
     43          1           0       -5.264003    0.359831    1.808220
     44         44           0       -0.621910    0.268140    0.064520
     45         15           0        1.072050    1.718690   -0.347450
     46         15           0        0.811510   -1.371840    0.708960
     47          6           0        0.555260    3.145000   -1.415230
     48          6           0        1.979940    2.593790    1.006510
     49          6           0        2.492600    0.932210   -1.243470
     50          6           0       -0.115440   -2.482910    1.864090
     51          6           0        1.604080   -2.588820   -0.430670
     52          6           0        2.341000   -0.805900    1.599840
     53          6           0        3.335780    0.046270   -0.586290
     54          6           0        2.600450    1.091630   -2.650790
     55          6           0        3.336940   -0.125140    0.908120
     56          6           0        2.463120   -0.979260    3.003230
     57          6           0        4.284620   -0.723890   -1.342980
     58          6           0        3.513790    0.384210   -3.381940
     59          1           0        1.949370    1.793800   -3.160190
     60          6           0        4.456820    0.420480    1.626070
     61          6           0        3.509240   -0.445910    3.704350
     62          1           0        1.719030   -1.553470    3.541060
     63          6           0        4.374990   -0.546870   -2.750910
     64          6           0        5.130580   -1.694900   -0.738280
     65          1           0        3.585760    0.527630   -4.457220
     66          6           0        4.525460    0.280090    3.038970
     67          6           0        5.510150    1.125560    0.977780
     68          1           0        3.575460   -0.585650    4.780410
     69          6           0        5.302180   -1.316580   -3.501310
     70          6           0        6.012440   -2.432040   -1.488000
     71          1           0        5.063550   -1.869990    0.329910
     72          6           0        5.611740    0.850600    3.755000
     73          6           0        6.557520    1.651590    1.690230
     74          1           0        5.479180    1.263880   -0.096840
     75          6           0        6.106520   -2.240580   -2.885740
     76          1           0        5.354430   -1.163010   -4.576380
     77          1           0        6.639290   -3.175770   -1.004210
     78          6           0        6.610070    1.520760    3.097260
     79          1           0        5.636800    0.738140    4.836030
     80          1           0        7.346990    2.186980    1.170490
     81          1           0        6.810240   -2.830220   -3.466240
     82          1           0        7.439960    1.951420    3.650120
     83          6           0        0.827440    4.489480   -1.138250
     84          6           0       -0.257360    2.851020   -2.518510
     85          6           0        0.323890    5.501370   -1.955610
     86          1           0        1.426390    4.767710   -0.278600
     87          6           0       -0.752320    3.856820   -3.341450
     88          1           0       -0.530790    1.821440   -2.718150
     89          6           0       -0.460110    5.190610   -3.062850
     90          1           0        0.546410    6.538090   -1.718620
     91          1           0       -1.378640    3.594730   -4.189710
     92          1           0       -0.850510    5.981650   -3.696920
     93          6           0        3.141550    3.318280    0.708080
     94          6           0        1.548350    2.541330    2.332900
     95          6           0        3.851260    3.973070    1.708830
     96          1           0        3.505590    3.362790   -0.315480
     97          6           0        2.269240    3.179050    3.341330
     98          1           0        0.656770    1.973470    2.579400
     99          6           0        3.422400    3.895440    3.032720
    100          1           0        4.752400    4.525000    1.457650
    101          1           0        1.929620    3.109010    4.371110
    102          1           0        3.986640    4.389250    3.818870
    103          6           0       -0.549330   -3.746180    1.446820
    104          6           0       -0.643830   -1.966050    3.058660
    105          6           0       -1.463130   -4.477890    2.205650
    106          1           0       -0.191390   -4.168420    0.513840
    107          6           0       -1.541690   -2.702680    3.825360
    108          1           0       -0.384720   -0.960290    3.376050
    109          6           0       -1.957750   -3.963570    3.399450
    110          1           0       -1.789590   -5.452640    1.853940
    111          1           0       -1.931650   -2.280480    4.747240
    112          1           0       -2.670240   -4.533060    3.989180
    113          6           0        2.339840   -3.675190    0.060650
    114          6           0        1.544740   -2.383230   -1.806180
    115          6           0        2.973210   -4.551130   -0.814340
    116          1           0        2.418200   -3.840200    1.132790
    117          6           0        2.186270   -3.251970   -2.687240
    118          1           0        1.014910   -1.513770   -2.180640
    119          6           0        2.898220   -4.340140   -2.192220
    120          1           0        3.538000   -5.392230   -0.422060
    121          1           0        2.141470   -3.065920   -3.756790
    122          1           0        3.404480   -5.017370   -2.874350
 ---------------------------------------------------------------------
 Rotational constants (GHZ):      0.0531663      0.0410824      0.0365734
 Leave Link  202 at Wed Dec 19 17:02:09 2018, MaxMem=   402653184 cpu:         0.0
 (Enter /usr/local/apps/eb/gaussian/09-Intel-SSE4_2/g09/l301.exe)
 Standard basis: VSTO-6G (5D, 7F)
 Ernie: Thresh=  0.10000D-02 Tol=  0.10000D-05 Strict=F.
  NNHCO=     0 NNPyr=     0 NCTC=     0               EPep=         0.000000000
    EC=      5187.084553916  ECS=        27.592190691   EG=         3.118467892
   EHC=         0.004585846  EAt=      -310.186583618  AtH=        21.554630922
 EPDDG=         0.000000000  ECC=      5217.799798345 EAtT=       331.741214540
   329 basis functions,  1992 primitive gaussians,   332 cartesian basis functions
   162 alpha electrons      162 beta electrons
       nuclear repulsion energy      5549.5410128849 Hartrees.
 IExCor=    0 DFT=F Ex=HF Corr=None ExCW=0 ScaHFX=  1.000000
 ScaDFX=  1.000000  1.000000  1.000000  1.000000 ScalE2=  1.000000  1.000000
 IRadAn=      0 IRanWt=     -1 IRanGd=            0 ICorTp=0 IEmpDi=  4
 Integral buffers will be    131072 words long.
 Regular integral format.
 Two-electron integral symmetry is turned off.
 Leave Link  301 at Wed Dec 19 17:02:09 2018, MaxMem=   402653184 cpu:         0.1
 (Enter /usr/local/apps/eb/gaussian/09-Intel-SSE4_2/g09/l302.exe)
 Do NDO integrals.
 NPDir=0 NMtPBC=     1 NCelOv=     1 NCel=       1 NClECP=     1 NCelD=      1
         NCelK=      1 NCelE2=     1 NClLst=     1 CellRange=     0.0.
 One-electron integrals computed using PRISM.
 NBasis=   329 RedAO= F EigKep=  0.00D+00  NBF=   329
 NBsUse=   329 1.00D-04 EigRej=  0.00D+00 NBFU=   329
 Leave Link  302 at Wed Dec 19 17:02:10 2018, MaxMem=   402653184 cpu:         0.6
 (Enter /usr/local/apps/eb/gaussian/09-Intel-SSE4_2/g09/l303.exe)
 DipDrv:  MaxL=1.
 Leave Link  303 at Wed Dec 19 17:02:10 2018, MaxMem=   402653184 cpu:         0.1
 (Enter /usr/local/apps/eb/gaussian/09-Intel-SSE4_2/g09/l401.exe)
 Nonelectrostatic core Hamiltonian diagonalized for initial guess.
 JPrj=0 DoOrth=F DoCkMO=F.
 Leave Link  401 at Wed Dec 19 17:02:10 2018, MaxMem=   402653184 cpu:         0.2
 (Enter /usr/local/apps/eb/gaussian/09-Intel-SSE4_2/g09/l502.exe)
 Closed shell SCF:
 Using DIIS extrapolation, IDIIS=  1040.
 Overlap will be assumed to be unity.
 Two-electron integral symmetry not used.
 Keep J ints in memory in canonical form, NReq=2609420.
 IVT=      412341 IEndB=      412341 NGot=   402653184 MDV=   401918038
 LenX=   401918038 LenY=   401807373
 Requested convergence on RMS density matrix=1.00D-08 within 128 cycles.
 Requested convergence on MAX density matrix=1.00D-06.
 Requested convergence on             energy=1.00D-06.
 No special actions if energy rises.
 FoFCou: FMM=F IPFlag=           0 FMFlag=           0 FMFlg1=           0
         NFxFlg=           0 DoJE=F BraDBF=F KetDBF=F FulRan=T
         wScrn=  0.000000 ICntrl=     600 IOpCl=  2 I1Cent=           0 NGrid=           0
         NMat0=    1 NMatS0=    803 NMatT0=    0 NMatD0=    1 NMtDS0=    0 NMtDT0=    0
 Symmetry not used in FoFCou.

 Cycle   1  Pass 1  IDiag  1:
 E=  7.25550770211430    
 DIIS: error= 7.47D-02 at cycle   1 NSaved=   1.
 NSaved= 1 IEnMin= 1 EnMin=  7.25550770211430     IErMin= 1 ErrMin= 7.47D-02
 ErrMax= 7.47D-02  0.00D+00 EMaxC= 1.00D-01 BMatC= 1.39D+00 BMatP= 1.39D+00
 IDIUse=3 WtCom= 2.53D-01 WtEn= 7.47D-01
 Coeff-Com:  0.100D+01
 Coeff-En:   0.100D+01
 Coeff:      0.100D+01
 GapD=    2.000 DampG=2.000 DampE=0.250 DampFc=0.5000 IDamp=-1.
 Damping current iteration by 5.00D-01
 RMSDP=1.50D-02 MaxDP=8.28D-01              OVMax= 0.00D+00

 Cycle   2  Pass 1  IDiag  1:
 E=  13.9205243158958     Delta-E=        6.665016613782 Rises=F Damp=T
 DIIS: error= 6.08D-02 at cycle   2 NSaved=   2.
 NSaved= 2 IEnMin= 1 EnMin=  7.25550770211430     IErMin= 2 ErrMin= 6.08D-02
 ErrMax= 6.08D-02  0.00D+00 EMaxC= 1.00D-01 BMatC= 1.61D+00 BMatP= 1.39D+00
 IDIUse=2 WtCom= 0.00D+00 WtEn= 1.00D+00
 Coeff-En:   0.803D+00 0.197D+00
 Coeff:      0.803D+00 0.197D+00
 RMSDP=7.39D-03 MaxDP=3.98D-01 DE= 6.67D+00 OVMax= 0.00D+00

 Cycle   3  Pass 1  IDiag  1:
 E=  2.96154067554380     Delta-E=      -10.958983640352 Rises=F Damp=F
 DIIS: error= 5.05D-02 at cycle   3 NSaved=   3.
 NSaved= 3 IEnMin= 3 EnMin=  2.96154067554380     IErMin= 3 ErrMin= 5.05D-02
 ErrMax= 5.05D-02  0.00D+00 EMaxC= 1.00D-01 BMatC= 3.90D-01 BMatP= 1.39D+00
 IDIUse=3 WtCom= 4.95D-01 WtEn= 5.05D-01
 Coeff-Com:  0.211D+00-0.712D-01 0.860D+00
 Coeff-En:   0.000D+00 0.000D+00 0.100D+01
 Coeff:      0.105D+00-0.353D-01 0.931D+00
 RMSDP=6.78D-03 MaxDP=5.79D-01 DE=-1.10D+01 OVMax= 0.00D+00

 Cycle   4  Pass 1  IDiag  1:
 E=  3.23288923213841     Delta-E=        0.271348556595 Rises=F Damp=F
 DIIS: error= 5.60D-02 at cycle   4 NSaved=   4.
 NSaved= 4 IEnMin= 3 EnMin=  2.96154067554380     IErMin= 3 ErrMin= 5.05D-02
 ErrMax= 5.60D-02  0.00D+00 EMaxC= 1.00D-01 BMatC= 3.93D-01 BMatP= 3.90D-01
 IDIUse=3 WtCom= 4.40D-01 WtEn= 5.60D-01
 Coeff-Com: -0.125D+00 0.311D-01 0.478D+00 0.616D+00
 Coeff-En:   0.000D+00 0.000D+00 0.563D+00 0.437D+00
 Coeff:     -0.550D-01 0.137D-01 0.525D+00 0.516D+00
 RMSDP=5.28D-03 MaxDP=5.26D-01 DE= 2.71D-01 OVMax= 0.00D+00

 Cycle   5  Pass 1  IDiag  1:
 E=  1.74825020071694     Delta-E=       -1.484639031421 Rises=F Damp=F
 DIIS: error= 2.02D-02 at cycle   5 NSaved=   5.
 NSaved= 5 IEnMin= 5 EnMin=  1.74825020071694     IErMin= 5 ErrMin= 2.02D-02
 ErrMax= 2.02D-02  0.00D+00 EMaxC= 1.00D-01 BMatC= 4.70D-02 BMatP= 3.90D-01
 IDIUse=3 WtCom= 7.98D-01 WtEn= 2.02D-01
 Coeff-Com: -0.867D-01-0.132D-01-0.249D-01 0.243D+00 0.882D+00
 Coeff-En:   0.000D+00 0.000D+00 0.000D+00 0.000D+00 0.100D+01
 Coeff:     -0.692D-01-0.106D-01-0.199D-01 0.194D+00 0.906D+00
 RMSDP=1.57D-03 MaxDP=9.90D-02 DE=-1.48D+00 OVMax= 0.00D+00

 Cycle   6  Pass 1  IDiag  1:
 E=  1.57641927582426     Delta-E=       -0.171830924893 Rises=F Damp=F
 DIIS: error= 5.81D-03 at cycle   6 NSaved=   6.
 NSaved= 6 IEnMin= 6 EnMin=  1.57641927582426     IErMin= 6 ErrMin= 5.81D-03
 ErrMax= 5.81D-03  0.00D+00 EMaxC= 1.00D-01 BMatC= 4.81D-03 BMatP= 4.70D-02
 IDIUse=3 WtCom= 9.42D-01 WtEn= 5.81D-02
 Coeff-Com:  0.145D-01-0.122D-01-0.625D-01-0.381D-01-0.527D-01 0.115D+01
[...]
     55          6           0        3.336940   -0.125140    0.908120
     56          6           0        2.463120   -0.979260    3.003230
     57          6           0        4.284620   -0.723890   -1.342980
     58          6           0        3.513790    0.384210   -3.381940
     59          1           0        1.949370    1.793800   -3.160190
     60          6           0        4.456820    0.420480    1.626070
     61          6           0        3.509240   -0.445910    3.704350
     62          1           0        1.719030   -1.553470    3.541060
     63          6           0        4.374990   -0.546870   -2.750910
     64          6           0        5.130580   -1.694900   -0.738280
     65          1           0        3.585760    0.527630   -4.457220
     66          6           0        4.525460    0.280090    3.038970
     67          6           0        5.510150    1.125560    0.977780
     68          1           0        3.575460   -0.585650    4.780410
     69          6           0        5.302180   -1.316580   -3.501310
     70          6           0        6.012440   -2.432040   -1.488000
     71          1           0        5.063550   -1.869990    0.329910
     72          6           0        5.611740    0.850600    3.755000
     73          6           0        6.557520    1.651590    1.690230
     74          1           0        5.479180    1.263880   -0.096840
     75          6           0        6.106520   -2.240580   -2.885740
     76          1           0        5.354430   -1.163010   -4.576380
     77          1           0        6.639290   -3.175770   -1.004210
     78          6           0        6.610070    1.520760    3.097260
     79          1           0        5.636800    0.738140    4.836030
     80          1           0        7.346990    2.186980    1.170490
     81          1           0        6.810240   -2.830220   -3.466240
     82          1           0        7.439960    1.951420    3.650120
     83          6           0        0.827440    4.489480   -1.138250
     84          6           0       -0.257360    2.851020   -2.518510
     85          6           0        0.323890    5.501370   -1.955610
     86          1           0        1.426390    4.767710   -0.278600
     87          6           0       -0.752320    3.856820   -3.341450
     88          1           0       -0.530790    1.821440   -2.718150
     89          6           0       -0.460110    5.190610   -3.062850
     90          1           0        0.546410    6.538090   -1.718620
     91          1           0       -1.378640    3.594730   -4.189710
     92          1           0       -0.850510    5.981650   -3.696920
     93          6           0        3.141550    3.318280    0.708080
     94          6           0        1.548350    2.541330    2.332900
     95          6           0        3.851260    3.973070    1.708830
     96          1           0        3.505590    3.362790   -0.315480
     97          6           0        2.269240    3.179050    3.341330
     98          1           0        0.656770    1.973470    2.579400
     99          6           0        3.422400    3.895440    3.032720
    100          1           0        4.752400    4.525000    1.457650
    101          1           0        1.929620    3.109010    4.371110
    102          1           0        3.986640    4.389250    3.818870
    103          6           0       -0.549330   -3.746180    1.446820
    104          6           0       -0.643830   -1.966050    3.058660
    105          6           0       -1.463130   -4.477890    2.205650
    106          1           0       -0.191390   -4.168420    0.513840
    107          6           0       -1.541690   -2.702680    3.825360
    108          1           0       -0.384720   -0.960290    3.376050
    109          6           0       -1.957750   -3.963570    3.399450
    110          1           0       -1.789590   -5.452640    1.853940
    111          1           0       -1.931650   -2.280480    4.747240
    112          1           0       -2.670240   -4.533060    3.989180
    113          6           0        2.339840   -3.675190    0.060650
    114          6           0        1.544740   -2.383230   -1.806180
    115          6           0        2.973210   -4.551130   -0.814340
    116          1           0        2.418200   -3.840200    1.132790
    117          6           0        2.186270   -3.251970   -2.687240
    118          1           0        1.014910   -1.513770   -2.180640
    119          6           0        2.898220   -4.340140   -2.192220
    120          1           0        3.538000   -5.392230   -0.422060
    121          1           0        2.141470   -3.065920   -3.756790
    122          1           0        3.404480   -5.017370   -2.874350
 ---------------------------------------------------------------------
 Rotational constants (GHZ):      0.0517050      0.0371146      0.0338303
 Leave Link  202 at Wed Dec 19 17:03:34 2018, MaxMem=   402653184 cpu:         0.0
 (Enter /usr/local/apps/eb/gaussian/09-Intel-SSE4_2/g09/l601.exe)
 Copying SCF densities to generalized density rwf, IOpCl= 0 IROHF=0.

 **********************************************************************

            Population analysis using the SCF density.

 **********************************************************************

 Alpha  occ. eigenvalues --   -1.28033  -1.14079  -1.13219  -1.12388  -1.11917
 Alpha  occ. eigenvalues --   -1.11144  -1.10808  -1.10329  -1.08543  -1.07836
 Alpha  occ. eigenvalues --   -1.07644  -1.04750  -1.03581  -1.02001  -0.99274
 Alpha  occ. eigenvalues --   -0.98428  -0.98231  -0.97674  -0.97274  -0.96902
 Alpha  occ. eigenvalues --   -0.96622  -0.96217  -0.95573  -0.95297  -0.94930
 Alpha  occ. eigenvalues --   -0.94851  -0.94687  -0.94293  -0.92957  -0.91925
 Alpha  occ. eigenvalues --   -0.90106  -0.89096  -0.86134  -0.85049  -0.83229
 Alpha  occ. eigenvalues --   -0.82736  -0.81533  -0.81151  -0.80602  -0.79992
 Alpha  occ. eigenvalues --   -0.79790  -0.79633  -0.79438  -0.79374  -0.78460
 Alpha  occ. eigenvalues --   -0.78110  -0.77581  -0.76865  -0.76288  -0.73997
 Alpha  occ. eigenvalues --   -0.73293  -0.70444  -0.67746  -0.67241  -0.66775
 Alpha  occ. eigenvalues --   -0.66206  -0.65699  -0.65052  -0.64780  -0.63963
 Alpha  occ. eigenvalues --   -0.63397  -0.62982  -0.61964  -0.61893  -0.61254
 Alpha  occ. eigenvalues --   -0.60647  -0.60498  -0.60082  -0.59498  -0.58443
 Alpha  occ. eigenvalues --   -0.57866  -0.57361  -0.57155  -0.56840  -0.56594
 Alpha  occ. eigenvalues --   -0.56446  -0.56343  -0.55963  -0.55750  -0.55542
 Alpha  occ. eigenvalues --   -0.55254  -0.54900  -0.54622  -0.54614  -0.53961
 Alpha  occ. eigenvalues --   -0.53613  -0.53231  -0.53067  -0.52929  -0.52837
 Alpha  occ. eigenvalues --   -0.52677  -0.52580  -0.52386  -0.51989  -0.51839
 Alpha  occ. eigenvalues --   -0.51774  -0.51456  -0.51349  -0.51030  -0.50599
 Alpha  occ. eigenvalues --   -0.50523  -0.50173  -0.50098  -0.49574  -0.49287
 Alpha  occ. eigenvalues --   -0.48900  -0.48778  -0.48642  -0.48457  -0.48246
 Alpha  occ. eigenvalues --   -0.47680  -0.47435  -0.47129  -0.47015  -0.46732
 Alpha  occ. eigenvalues --   -0.46366  -0.46111  -0.45766  -0.45633  -0.45487
 Alpha  occ. eigenvalues --   -0.45159  -0.44823  -0.44696  -0.44623  -0.44473
 Alpha  occ. eigenvalues --   -0.44231  -0.43929  -0.43745  -0.43395  -0.43297
 Alpha  occ. eigenvalues --   -0.42999  -0.42786  -0.42371  -0.42254  -0.42205
 Alpha  occ. eigenvalues --   -0.41560  -0.41150  -0.40450  -0.40090  -0.39366
 Alpha  occ. eigenvalues --   -0.38026  -0.37474  -0.37179  -0.36630  -0.36479
 Alpha  occ. eigenvalues --   -0.36371  -0.36062  -0.35967  -0.35442  -0.35369
 Alpha  occ. eigenvalues --   -0.35207  -0.34023  -0.33767  -0.33625  -0.32934
 Alpha  occ. eigenvalues --   -0.32690  -0.32617  -0.30789  -0.26881  -0.26504
 Alpha  occ. eigenvalues --   -0.26083  -0.22567
 Alpha virt. eigenvalues --   -0.03412  -0.02477  -0.01330  -0.01197  -0.00868
 Alpha virt. eigenvalues --   -0.00417  -0.00175   0.00143   0.00346   0.00837
 Alpha virt. eigenvalues --    0.01170   0.01587   0.01771   0.02341   0.02709
 Alpha virt. eigenvalues --    0.02917   0.03198   0.03868   0.05372   0.05780
 Alpha virt. eigenvalues --    0.07322   0.07625   0.08326   0.08587   0.08831
 Alpha virt. eigenvalues --    0.08961   0.09292   0.09402   0.09780   0.09865
 Alpha virt. eigenvalues --    0.10102   0.10499   0.10885   0.11356   0.11629
 Alpha virt. eigenvalues --    0.11751   0.11813   0.12088   0.13295   0.13580
 Alpha virt. eigenvalues --    0.13839   0.13990   0.14193   0.14448   0.14659
 Alpha virt. eigenvalues --    0.14720   0.14846   0.15372   0.15588   0.15692
 Alpha virt. eigenvalues --    0.15831   0.16141   0.16198   0.16306   0.16343
 Alpha virt. eigenvalues --    0.16543   0.16564   0.16651   0.16730   0.16836
 Alpha virt. eigenvalues --    0.16899   0.16927   0.17012   0.17095   0.17134
 Alpha virt. eigenvalues --    0.17196   0.17298   0.17379   0.17595   0.17621
 Alpha virt. eigenvalues --    0.17657   0.17714   0.17746   0.17928   0.18051
 Alpha virt. eigenvalues --    0.18417   0.18475   0.18752   0.18766   0.18848
 Alpha virt. eigenvalues --    0.18891   0.19080   0.19144   0.19158   0.19166
 Alpha virt. eigenvalues --    0.19488   0.19518   0.19588   0.19696   0.19724
 Alpha virt. eigenvalues --    0.19822   0.19988   0.20055   0.20330   0.20436
 Alpha virt. eigenvalues --    0.20613   0.20650   0.20691   0.20726   0.20761
 Alpha virt. eigenvalues --    0.20810   0.21053   0.21096   0.21132   0.21161
 Alpha virt. eigenvalues --    0.21191   0.21295   0.21399   0.21428   0.21568
 Alpha virt. eigenvalues --    0.21609   0.21633   0.21694   0.21710   0.21835
 Alpha virt. eigenvalues --    0.21850   0.21867   0.21963   0.21979   0.21998
 Alpha virt. eigenvalues --    0.22066   0.22098   0.22136   0.22144   0.22354
 Alpha virt. eigenvalues --    0.22357   0.22387   0.22427   0.22480   0.22507
 Alpha virt. eigenvalues --    0.22607   0.22655   0.22673   0.22820   0.22995
 Alpha virt. eigenvalues --    0.23070   0.23103   0.23372   0.23469   0.23539
 Alpha virt. eigenvalues --    0.23672   0.24034   0.24173   0.24406   0.24531
 Alpha virt. eigenvalues --    0.24572   0.24637   0.24735   0.25232   0.25543
 Alpha virt. eigenvalues --    0.25726   0.25819   0.26000   0.27083   0.28262
 Alpha virt. eigenvalues --    0.28271   0.30162   4.26261   4.26643   4.29040
 Alpha virt. eigenvalues --    4.37574   4.38301   4.44722   4.45880   4.52406
 Alpha virt. eigenvalues --    4.54408   4.54781
          Condensed to atoms (all electrons):
 Mulliken charges:
               1
     1  H    0.167859
     2  C   -0.603397
     3  C    0.532219
     4  O   -0.781356
     5  C   -0.071744
     6  H    0.155503
     7  H    0.157316
     8  H   -0.138966
     9  H   -0.072172
    10  N   -0.363789
    11  N   -0.357220
    12  C    0.239965
    13  H    0.201636
    14  H    0.267120
    15  C    0.243167
    16  H    0.214685
    17  H    0.208174
    18  C   -0.551700
    19  C   -0.549540
    20  C   -0.569470
    21  C   -0.561435
    22  C   -0.184269
    23  C   -0.149970
    24  C   -0.170887
    25  C   -0.145393
    26  C   -0.148664
    27  H    0.146483
    28  H    0.132730
    29  H    0.138374
    30  H    0.139306
    31  H    0.162754
    32  H    0.156801
    33  H    0.162753
    34  H    0.175962
    35  H    0.149924
    36  H    0.197258
    37  H    0.153528
    38  H    0.230540
    39  H    0.159868
    40  H    0.171502
    41  H    0.152017
    42  H    0.158451
    43  H    0.165278
    44  Ru  -0.462530
    45  P    0.840317
    46  P    0.819510
    47  C   -0.309962
    48  C   -0.300532
    49  C   -0.302140
    50  C   -0.277029
    51  C   -0.314074
    52  C   -0.305728
    53  C    0.042611
    54  C   -0.075778
    55  C    0.064820
    56  C   -0.084229
    57  C   -0.034477
    58  C   -0.201254
    59  H    0.156720
    60  C   -0.035107
    61  C   -0.201519
    62  H    0.148259
    63  C    0.058730
    64  C   -0.124329
    65  H    0.159054
    66  C    0.064702
    67  C   -0.125734
    68  H    0.156050
    69  C   -0.190040
    70  C   -0.162110
    71  H    0.158581
    72  C   -0.190519
    73  C   -0.164996
    74  H    0.159621
    75  C   -0.112579
    76  H    0.154164
    77  H    0.149007
    78  C   -0.111262
    79  H    0.153190
    80  H    0.149702
    81  H    0.145210
    82  H    0.145290
    83  C   -0.068462
    84  C   -0.067270
    85  C   -0.195474
    86  H    0.145762
    87  C   -0.170194
    88  H    0.182247
    89  C   -0.100873
    90  H    0.148714
    91  H    0.165820
    92  H    0.143329
    93  C   -0.062330
    94  C   -0.050561
    95  C   -0.187855
    96  H    0.145035
    97  C   -0.189874
    98  H    0.148777
    99  C   -0.087081
   100  H    0.150557
   101  H    0.149366
   102  H    0.141536
   103  C   -0.082839
   104  C   -0.097896
   105  C   -0.172754
   106  H    0.155883
   107  C   -0.179591
   108  H    0.147927
   109  C   -0.108259
   110  H    0.153633
   111  H    0.151599
   112  H    0.147362
   113  C   -0.060762
   114  C   -0.042367
   115  C   -0.198142
   116  H    0.140973
   117  C   -0.182675
   118  H    0.163115
   119  C   -0.083074
   120  H    0.149218
   121  H    0.155145
   122  H    0.141525
 Sum of Mulliken charges =   0.00000
 Mulliken charges with hydrogens summed into heavy atoms:
               1
     2  C   -0.122719
     3  C    0.393253
     4  O   -0.781356
     5  C   -0.071744
    10  N    0.104966
    11  N    0.065639
    12  C    0.239965
    15  C    0.243167
    18  C   -0.056184
    19  C   -0.048830
    20  C   -0.007559
    21  C   -0.085690
    22  C   -0.037786
    23  C    0.012783
    24  C   -0.032513
    25  C   -0.006086
    26  C   -0.015934
    44  Ru  -0.534702
    45  P    0.840317
    46  P    0.819510
    47  C   -0.309962
    48  C   -0.300532
    49  C   -0.302140
    50  C   -0.277029
    51  C   -0.314074
    52  C   -0.305728
    53  C    0.042611
    54  C    0.080942
    55  C    0.064820
    56  C    0.064030
    57  C   -0.034477
    58  C   -0.042199
    60  C   -0.035107
    61  C   -0.045469
    63  C    0.058730
    64  C    0.034253
    66  C    0.064702
    67  C    0.033887
    69  C   -0.035876
    70  C   -0.013103
    72  C   -0.037329
    73  C   -0.015294
    75  C    0.032631
    78  C    0.034028
    83  C    0.077300
    84  C    0.114977
    85  C   -0.046760
    87  C   -0.004374
    89  C    0.042456
    93  C    0.082704
    94  C    0.098217
    95  C   -0.037299
    97  C   -0.040508
    99  C    0.054455
   103  C    0.073043
   104  C    0.050030
   105  C   -0.019121
   107  C   -0.027992
   109  C    0.039103
   113  C    0.080211
   114  C    0.120748
   115  C   -0.048924
   117  C   -0.027530
   119  C    0.058451
 Charge=              0.0000 electrons
 Dipole moment (field-independent basis, Debye):
    X=              5.1038    Y=             -0.6948    Z=              6.0380  Tot=              7.9365
 N-N= 5.395687103006D+03 E-N=-1.031007159055D+04  KE=-2.763550552338D+02
 Leave Link  601 at Wed Dec 19 17:03:34 2018, MaxMem=   402653184 cpu:         0.1
 (Enter /usr/local/apps/eb/gaussian/09-Intel-SSE4_2/g09/l9999.exe)
 1\1\GINC-N225\FOpt\RPM6\ZDO\C58H58N2O1P2Ru1\VMI38398\19-Dec-2018\0\\#P
 M6 opt nosym\\step 1 (attempt 1) cycle 1\\0,1\H,-1.3205399051,-0.75889
 89174,-4.9701901388\C,-0.8372400451,-0.6750740301,-3.9870753794\C,-1.9
 483740407,-0.4472656832,-2.9702301158\O,-2.6032979895,0.6234292746,-3.
 0349517575\C,-2.6518137835,-1.7946449656,-2.8157898588\H,-0.2789481974
 ,-1.5962951923,-3.8126108118\H,-0.1440491415,0.1690915593,-4.016406246
 2\H,-0.87528,-0.29689,-1.62782\H,-0.64154,0.77071,1.63835\N,-2.2201078
 364,1.669657596,-0.3515716692\N,-2.4174683279,-0.8779509355,0.60129682
 76\C,-3.3838158263,1.3861685552,0.5147051294\H,-1.9674747296,2.6527338
 345,-0.2619591896\H,-2.4708280431,1.5105900634,-1.3373558742\C,-3.6702
 630091,-0.1187771496,0.3901507601\H,-2.4884629579,-1.7641070134,0.1014
 720176\H,-2.3291735752,-1.1246937125,1.5835852586\C,-4.5982143357,2.25
 19804377,0.1057456692\C,-2.961533167,1.7909719762,1.9533129981\C,-4.41
 27898565,-0.4618445619,-0.903131522\C,-4.6645209309,-0.5499680554,1.53
 14690627\C,-2.1162008036,-2.8384381934,-2.055484952\C,-3.8149167217,-2
 .0213407962,-3.5743812048\C,-3.9051093002,-4.3069117268,-2.7743525522\
 C,-4.4386349193,-3.2688524156,-3.5498604035\C,-2.7433663383,-4.0899431
 413,-2.0300840167\H,-1.1990254206,-2.6695401298,-1.4913381648\H,-2.319
 0502542,-4.8960291736,-1.437182708\H,-4.3913546205,-5.2783823583,-2.75
 88379481\H,-5.3383807696,-3.4384772289,-4.1371350075\H,-4.2225681895,-
 1.2048851572,-4.1729941959\H,-4.4123800817,3.316143995,0.2820611136\H,
 -5.4904605811,1.9798828278,0.6784378671\H,-4.8439801093,2.1404084381,-
 0.9588397731\H,-2.880253655,2.8745843427,2.0618186324\H,-1.9326648217,
 1.3609801549,2.170791905\H,-3.6565181271,1.4353784788,2.7131120309\H,-
 3.9785222551,0.055396086,-1.7874969527\H,-5.4605095541,-0.1462337683,-
 0.8695903751\H,-4.4195780733,-1.5370106102,-1.1094753445\H,-4.23926835
 7,-0.4236917379,2.5310013342\H,-4.9600839112,-1.5971130488,1.417538551
 9\H,-5.5821015532,0.0464384006,1.4948465133\Ru,-0.621926375,0.26808175
 08,0.0643911893\P,1.07205,1.71869,-0.34745\P,0.81151,-1.37184,0.70896\
 C,0.55526,3.145,-1.41523\C,1.97994,2.59379,1.00651\C,2.4926,0.93221,-1
 .24347\C,-0.11544,-2.48291,1.86409\C,1.60408,-2.58882,-0.43067\C,2.341
 ,-0.8059,1.59984\C,3.33578,0.04627,-0.58629\C,2.60045,1.09163,-2.65079
 \C,3.33694,-0.12514,0.90812\C,2.46312,-0.97926,3.00323\C,4.28462,-0.72
 389,-1.34298\C,3.51379,0.38421,-3.38194\H,1.94937,1.7938,-3.16019\C,4.
 45682,0.42048,1.62607\C,3.50924,-0.44591,3.70435\H,1.71903,-1.55347,3.
 54106\C,4.37499,-0.54687,-2.75091\C,5.13058,-1.6949,-0.73828\H,3.58576
 ,0.52763,-4.45722\C,4.52546,0.28009,3.03897\C,5.51015,1.12556,0.97778\
 H,3.57546,-0.58565,4.78041\C,5.30218,-1.31658,-3.50131\C,6.01244,-2.43
 204,-1.488\H,5.06355,-1.86999,0.32991\C,5.61174,0.8506,3.755\C,6.55752
 ,1.65159,1.69023\H,5.47918,1.26388,-0.09684\C,6.10652,-2.24058,-2.8857
 4\H,5.35443,-1.16301,-4.57638\H,6.63929,-3.17577,-1.00421\C,6.61007,1.
 52076,3.09726\H,5.6368,0.73814,4.83603\H,7.34699,2.18698,1.17049\H,6.8
 1024,-2.83022,-3.46624\H,7.43996,1.95142,3.65012\C,0.82744,4.48948,-1.
 13825\C,-0.25736,2.85102,-2.51851\C,0.32389,5.50137,-1.95561\H,1.42639
 ,4.76771,-0.2786\C,-0.75232,3.85682,-3.34145\H,-0.53079,1.82144,-2.718
 15\C,-0.46011,5.19061,-3.06285\H,0.54641,6.53809,-1.71862\H,-1.37864,3
 .59473,-4.18971\H,-0.85051,5.98165,-3.69692\C,3.14155,3.31828,0.70808\
 C,1.54835,2.54133,2.3329\C,3.85126,3.97307,1.70883\H,3.50559,3.36279,-
 0.31548\C,2.26924,3.17905,3.34133\H,0.65677,1.97347,2.5794\C,3.4224,3.
 89544,3.03272\H,4.7524,4.525,1.45765\H,1.92962,3.10901,4.37111\H,3.986
 64,4.38925,3.81887\C,-0.54933,-3.74618,1.44682\C,-0.64383,-1.96605,3.0
 5866\C,-1.46313,-4.47789,2.20565\H,-0.19139,-4.16842,0.51384\C,-1.5416
 9,-2.70268,3.82536\H,-0.38472,-0.96029,3.37605\C,-1.95775,-3.96357,3.3
 9945\H,-1.78959,-5.45264,1.85394\H,-1.93165,-2.28048,4.74724\H,-2.6702
 4,-4.53306,3.98918\C,2.33984,-3.67519,0.06065\C,1.54474,-2.38323,-1.80
 618\C,2.97321,-4.55113,-0.81434\H,2.4182,-3.8402,1.13279\C,2.18627,-3.
 25197,-2.68724\H,1.01491,-1.51377,-2.18064\C,2.89822,-4.34014,-2.19222
 \H,3.538,-5.39223,-0.42206\H,2.14147,-3.06592,-3.75679\H,3.40448,-5.01
 737,-2.87435\\Version=ES64L-G09RevD.01\HF=0.9406249\RMSD=8.459e-09\RMS
 F=1.056e-05\Dipole=2.0079744,-0.273365,2.3755189\PG=C01 [X(C58H58N2O1P
 2Ru1)]\\@


 THE ONLY TROUBLE WITH A SURE THING IS THE UNCERTAINTY.
     -- FROM A TEABAG (BELONGING TO W.H.?)
 Job cpu time:       0 days  0 hours  2 minutes 39.4 seconds.
 File lengths (MBytes):  RWF=     56 Int=      0 D2E=      0 Chk=     16 Scr=      1
 Normal termination of Gaussian 09 at Wed Dec 19 17:03:34 2018.
