 Entering Gaussian System, Link 0=g09
 Input=/home/vmi38398/chem/asymmetric_hydrogenation/debug/S_binap/S_binap-TMEN_Ph/R/ts1/Cf1/S_binap-TMEN_Ph.R.ts1.Cf1.4.com
 Output=/home/vmi38398/chem/asymmetric_hydrogenation/debug/S_binap/S_binap-TMEN_Ph/R/ts1/Cf1/S_binap-TMEN_Ph.R.ts1.Cf1.4.log
 Initial command:
 /usr/local/apps/eb/gaussian/09-Intel-SSE4_2/g09/l1.exe "/lscratch/vmi38398/653957.sapelo2/Gau-53789.inp" -scrdir="/lscratch/vmi38398/653957.sapelo2/"
 Default is to use a total of  14 processors:
                               14 via shared-memory
                                1 via Linda
 Entering Link 1 = /usr/local/apps/eb/gaussian/09-Intel-SSE4_2/g09/l1.exe PID=     53790.
  
 Copyright (c) 1988,1990,1992,1993,1995,1998,2003,2009,2013,
            Gaussian, Inc.  All Rights Reserved.
  
 This is part of the Gaussian(R) 09 program.  It is based on
 the Gaussian(R) 03 system (copyright 2003, Gaussian, Inc.),
 the Gaussian(R) 98 system (copyright 1998, Gaussian, Inc.),
 the Gaussian(R) 94 system (copyright 1995, Gaussian, Inc.),
 the Gaussian 92(TM) system (copyright 1992, Gaussian, Inc.),
 the Gaussian 90(TM) system (copyright 1990, Gaussian, Inc.),
 the Gaussian 88(TM) system (copyright 1988, Gaussian, Inc.),
 the Gaussian 86(TM) system (copyright 1986, Carnegie Mellon
 University), and the Gaussian 82(TM) system (copyright 1983,
 Carnegie Mellon University). Gaussian is a federally registered
 trademark of Gaussian, Inc.
  
 This software contains proprietary and confidential information,
 including trade secrets, belonging to Gaussian, Inc.
  
 This software is provided under written license and may be
 used, copied, transmitted, or stored only in accord with that
 written license.
  
 The following legend is applicable only to US Government
 contracts under FAR:
  
                    RESTRICTED RIGHTS LEGEND
  
 Use, reproduction and disclosure by the US Government is
 subject to restrictions as set forth in subparagraphs (a)
 and (c) of the Commercial Computer Software - Restricted
 Rights clause in FAR 52.227-19.
  
 Gaussian, Inc.
 340 Quinnipiac St., Bldg. 40, Wallingford CT 06492
  
  
 ---------------------------------------------------------------
 Warning -- This program may not be used in any manner that
 competes with the business of Gaussian, Inc. or will provide
 assistance to any competitor of Gaussian, Inc.  The licensee
 of this program is prohibited from giving any competitor of
 Gaussian, Inc. access to this program.  By using this program,
 the user acknowledges that Gaussian, Inc. is engaged in the
 business of creating and licensing software in the field of
 computational chemistry and represents and warrants to the
 licensee that it is not a competitor of Gaussian, Inc. and that
 it will not use this program in any manner prohibited above.
 ---------------------------------------------------------------
  

 Cite this work as:
 Gaussian 09, Revision D.01,
 M. J. Frisch, G. W. Trucks, H. B. Schlegel, G. E. Scuseria, 
 M. A. Robb, J. R. Cheeseman, G. Scalmani, V. Barone, B. Mennucci, 
 G. A. Petersson, H. Nakatsuji, M. Caricato, X. Li, H. P. Hratchian, 
 A. F. Izmaylov, J. Bloino, G. Zheng, J. L. Sonnenberg, M. Hada, 
 M. Ehara, K. Toyota, R. Fukuda, J. Hasegawa, M. Ishida, T. Nakajima, 
 Y. Honda, O. Kitao, H. Nakai, T. Vreven, J. A. Montgomery, Jr., 
 J. E. Peralta, F. Ogliaro, M. Bearpark, J. J. Heyd, E. Brothers, 
 K. N. Kudin, V. N. Staroverov, T. Keith, R. Kobayashi, J. Normand, 
 K. Raghavachari, A. Rendell, J. C. Burant, S. S. Iyengar, J. Tomasi, 
 M. Cossi, N. Rega, J. M. Millam, M. Klene, J. E. Knox, J. B. Cross, 
 V. Bakken, C. Adamo, J. Jaramillo, R. Gomperts, R. E. Stratmann, 
 O. Yazyev, A. J. Austin, R. Cammi, C. Pomelli, J. W. Ochterski, 
 R. L. Martin, K. Morokuma, V. G. Zakrzewski, G. A. Voth, 
 P. Salvador, J. J. Dannenberg, S. Dapprich, A. D. Daniels, 
 O. Farkas, J. B. Foresman, J. V. Ortiz, J. Cioslowski, 
 and D. J. Fox, Gaussian, Inc., Wallingford CT, 2013.
 
 ******************************************
 Gaussian 09:  ES64L-G09RevD.01 24-Apr-2013
                20-Dec-2018 
 ******************************************
 %chk=S_binap-TMEN_Ph.R.ts1.Cf1.chk
 ----------------------------------------------------------------------
 #wb97xd/genecp freq=(hpmodes,noraman,temperature=298) scrf=(pcm,solven
 t=2-propanol)
 ----------------------------------------------------------------------
 1/10=4,30=1,38=1,112=298000/1,3;
 2/12=2,17=6,18=5,40=1/2;
 3/5=7,11=2,16=1,17=8,25=1,30=1,70=2201,71=2,72=73,74=-58,140=1/1,2,3;
 4//1;
 5/5=2,38=5,53=73,98=1/2;
 8/6=4,10=90,11=11/1;
 11/6=1,8=1,9=11,15=111,16=1/1,2,10;
 10/6=1/2;
 6/7=2,8=2,9=2,10=2,18=1,28=1/1;
 7/8=11,10=1,25=1/1,2,3,16;
 1/10=4,30=1/3;
 99//99;
 --------------------------
 step 4 (attempt 1) cycle 1
 --------------------------
 Symbolic Z-matrix:
 Charge =  0 Multiplicity = 1
 H                    -2.87242  -0.58552  -4.43781 
 C                    -2.26055  -0.48989  -3.53012 
 C                    -3.1905   -0.01525  -2.42483 
 O                    -3.64647   1.14299  -2.45853 
 C                    -4.019    -1.10961  -1.77791 
 H                    -1.8264   -1.4674   -3.3175 
 H                    -1.46765   0.23396  -3.72565 
 H                    -1.80663   0.03936  -1.15087 
 H                    -0.69278   1.26273   1.84343 
 N                    -2.48038   2.36568   0.02831 
 N                    -3.0248    0.16277   1.37641 
 C                    -3.42708   2.62227   1.14714 
 H                    -2.00658   3.23715  -0.20322 
 H                    -3.00651   2.10285  -0.81475 
 C                    -4.0667    1.23584   1.52344 
 H                    -3.44303  -0.63973   0.90888 
 H                    -2.7575   -0.16736   2.29971 
 C                    -4.48219   3.6431    0.68946 
 C                    -2.65247   3.25184   2.31143 
 C                    -5.23516   0.89697   0.59115 
 C                    -4.58372   1.21443   2.96667 
 C                    -3.4968   -2.12236  -0.97082 
 C                    -5.38808  -1.10685  -2.05678 
 C                    -5.70148  -3.07356  -0.69451 
 C                    -6.22481  -2.08392  -1.52366 
 C                    -4.33406  -3.09023  -0.42148 
 H                    -2.43686  -2.11884  -0.74154 
 H                    -3.91712  -3.85353   0.22949 
 H                    -6.35409  -3.8277   -0.26469 
 H                    -7.28787  -2.06416  -1.74551 
 H                    -5.79691  -0.31868  -2.68208 
 H                    -4.00203   4.61549   0.5316 
 H                    -5.26281   3.77815   1.44617 
 H                    -4.95921   3.34768  -0.24911 
 H                    -2.06425   4.10091   1.94278 
 H                    -1.96102   2.54213   2.76667 
 H                    -3.3439    3.63246   3.06909 
 H                    -4.96157   1.00002  -0.46079 
 H                    -6.09152   1.54626   0.79384 
 H                    -5.55771  -0.13701   0.75768 
 H                    -3.77227   1.3151    3.69448 
 H                    -5.09391   0.26352   3.15624 
 H                    -5.30187   2.02204   3.14316 
 Ru                   -1.14231   0.68676   0.36776 
 P                     0.71322   1.60791  -0.53785 
 P                     0.00347  -1.159     0.97636 
 C                     0.34438   2.95087  -1.77169 
 C                     2.00018   2.43553   0.50403 
 C                     1.76061   0.41075  -1.49369 
 C                    -0.89053  -1.96713   2.38764 
 C                     0.32536  -2.60131  -0.13037 
 C                     1.747    -0.86737   1.5586 
 C                     2.52095  -0.55021  -0.84139 
 C                     1.62351   0.35383  -2.90636 
 C                     2.73936  -0.53053   0.64544 
 C                     2.05047  -0.86546   2.94496 
 C                     3.15442  -1.5936   -1.59974 
 C                     2.23295  -0.6219   -3.64483 
 H                     1.02645   1.10557  -3.412 
 C                     4.04703  -0.16395   1.11588 
 C                     3.28135  -0.49381   3.41059 
 H                     1.2958   -1.17198   3.65859 
 C                     3.0146   -1.62094  -3.01412 
 C                     3.91328  -2.62788  -0.98577 
 H                     2.12122  -0.64182  -4.72606 
 C                     4.30845  -0.12056   2.51168 
 C                     5.10611   0.18506   0.23145 
 H                     3.48536  -0.49335   4.4784 
 C                     3.64531  -2.64741  -3.76431 
 C                     4.51304  -3.60852  -1.7338 
 H                     4.00868  -2.64479   0.09406 
 C                     5.59078   0.27369   2.9783 
 C                     6.33903   0.5507    0.70667 
 H                     4.92912   0.17489  -0.83781 
 C                     4.38319  -3.6203   -3.14136 
 H                     3.5264   -2.64906  -4.84496 
 H                     5.08291  -4.39012  -1.23999 
 C                     6.58814   0.60129   2.09761 
 H                     5.76618   0.30596   4.05065 
 H                     7.12773   0.81604   0.00886 
 H                     4.86248  -4.4027   -3.72229 
 H                     7.56671   0.89889   2.46255 
 C                     1.0796    4.13084  -1.93571 
 C                    -0.79775   2.77365  -2.56314 
 C                     0.69449   5.08599  -2.8758 
 H                     1.95499   4.32407  -1.32653 
 C                    -1.18041   3.72019  -3.50807 
 H                    -1.40871   1.89129  -2.41319 
 C                    -0.43108   4.88295  -3.67036 
 H                     1.27823   5.99581  -2.98252 
 H                    -2.07248   3.54784  -4.10328 
 H                    -0.72695   5.62995  -4.40101 
 C                     3.25189   2.76364  -0.03123 
 C                     1.74424   2.74907   1.83948 
 C                     4.21841   3.39366   0.7447 
 H                     3.48485   2.50253  -1.06052 
 C                     2.71548   3.36742   2.62444 
 H                     0.78275   2.47512   2.26271 
 C                     3.95428   3.69232   2.07935 
 H                     5.18746   3.62515   0.31343 
 H                     2.5049    3.58726   3.66746 
 H                     4.71428   4.1686    2.69203 
 C                    -1.54351  -3.19471   2.23265 
 C                    -1.14031  -1.23541   3.56101 
 C                    -2.39754  -3.68585   3.22023 
 H                    -1.39986  -3.77803   1.32962 
 C                    -1.9787   -1.73111   4.55515 
 H                    -0.70477  -0.2468    3.67567 
 C                    -2.61329  -2.96161   4.38759 
 H                    -2.89504  -4.63955   3.06964 
 H                    -2.14931  -1.14653   5.45435 
 H                    -3.2781   -3.34395   5.15615 
 C                     0.96462  -3.75936   0.32837 
 C                    -0.00122  -2.50159  -1.47923 
 C                     1.24123  -4.80427  -0.54568 
 H                     1.24898  -3.84509   1.37455 
 C                     0.28554  -3.53979  -2.36165 
 H                    -0.44677  -1.5762   -1.82754 
 C                     0.90266  -4.69559  -1.89479 
 H                     1.73675  -5.69857  -0.17925 
 H                     0.04661  -3.43403  -3.41627 
 H                     1.13695  -5.50451  -2.58056 
 

 GradGradGradGradGradGradGradGradGradGradGradGradGradGradGradGradGradGrad
 Berny optimization.
 Initialization pass.
 Trust Radius=3.00D-01 FncErr=1.00D-07 GrdErr=1.00D-07
 Number of steps in this run=      2 maximum allowed number of steps=      2.
 GradGradGradGradGradGradGradGradGradGradGradGradGradGradGradGradGradGrad

 Stoichiometry    C58H58N2OP2Ru
 Framework group  C1[X(C58H58N2OP2Ru)]
 Deg. of freedom   360
 Full point group                 C1      NOp   1
 Largest Abelian subgroup         C1      NOp   1
 Largest concise Abelian subgroup C1      NOp   1
                         Standard orientation:                         
 ---------------------------------------------------------------------
 Center     Atomic      Atomic             Coordinates (Angstroms)
 Number     Number       Type             X           Y           Z
 ---------------------------------------------------------------------
      1          1           0       -2.872422   -0.585524   -4.437809
      2          6           0       -2.260548   -0.489888   -3.530121
      3          6           0       -3.190499   -0.015249   -2.424825
      4          8           0       -3.646473    1.142991   -2.458533
      5          6           0       -4.018997   -1.109614   -1.777908
      6          1           0       -1.826404   -1.467399   -3.317501
      7          1           0       -1.467653    0.233964   -3.725652
      8          1           0       -1.806632    0.039357   -1.150866
      9          1           0       -0.692777    1.262732    1.843425
     10          7           0       -2.480381    2.365677    0.028307
     11          7           0       -3.024798    0.162770    1.376411
     12          6           0       -3.427076    2.622272    1.147142
     13          1           0       -2.006581    3.237148   -0.203217
     14          1           0       -3.006507    2.102855   -0.814747
     15          6           0       -4.066697    1.235837    1.523440
     16          1           0       -3.443033   -0.639727    0.908881
     17          1           0       -2.757495   -0.167364    2.299710
     18          6           0       -4.482194    3.643104    0.689464
     19          6           0       -2.652474    3.251840    2.311434
     20          6           0       -5.235163    0.896968    0.591151
     21          6           0       -4.583716    1.214427    2.966670
     22          6           0       -3.496804   -2.122361   -0.970821
     23          6           0       -5.388078   -1.106849   -2.056778
     24          6           0       -5.701483   -3.073560   -0.694514
     25          6           0       -6.224814   -2.083917   -1.523661
     26          6           0       -4.334057   -3.090233   -0.421476
     27          1           0       -2.436857   -2.118844   -0.741544
     28          1           0       -3.917121   -3.853532    0.229486
     29          1           0       -6.354089   -3.827704   -0.264687
     30          1           0       -7.287866   -2.064163   -1.745508
     31          1           0       -5.796907   -0.318680   -2.682075
     32          1           0       -4.002032    4.615485    0.531600
     33          1           0       -5.262812    3.778147    1.446166
     34          1           0       -4.959207    3.347676   -0.249106
     35          1           0       -2.064245    4.100915    1.942784
     36          1           0       -1.961018    2.542133    2.766673
     37          1           0       -3.343903    3.632463    3.069093
     38          1           0       -4.961572    1.000015   -0.460786
     39          1           0       -6.091523    1.546255    0.793843
     40          1           0       -5.557714   -0.137012    0.757684
     41          1           0       -3.772266    1.315104    3.694476
     42          1           0       -5.093906    0.263515    3.156243
     43          1           0       -5.301865    2.022041    3.143164
     44         44           0       -1.142305    0.686756    0.367763
     45         15           0        0.713216    1.607907   -0.537854
     46         15           0        0.003467   -1.158998    0.976355
     47          6           0        0.344384    2.950868   -1.771693
     48          6           0        2.000184    2.435534    0.504029
     49          6           0        1.760608    0.410746   -1.493685
     50          6           0       -0.890531   -1.967128    2.387642
     51          6           0        0.325361   -2.601307   -0.130369
     52          6           0        1.747001   -0.867374    1.558600
     53          6           0        2.520945   -0.550208   -0.841392
     54          6           0        1.623509    0.353828   -2.906360
     55          6           0        2.739355   -0.530534    0.645442
     56          6           0        2.050474   -0.865460    2.944959
     57          6           0        3.154417   -1.593601   -1.599739
     58          6           0        2.232954   -0.621897   -3.644833
     59          1           0        1.026454    1.105568   -3.411996
     60          6           0        4.047026   -0.163950    1.115882
     61          6           0        3.281347   -0.493806    3.410586
     62          1           0        1.295804   -1.171980    3.658589
     63          6           0        3.014602   -1.620943   -3.014121
     64          6           0        3.913277   -2.627881   -0.985768
     65          1           0        2.121225   -0.641822   -4.726062
     66          6           0        4.308447   -0.120563    2.511683
     67          6           0        5.106113    0.185058    0.231449
     68          1           0        3.485357   -0.493351    4.478404
     69          6           0        3.645307   -2.647409   -3.764307
     70          6           0        4.513035   -3.608517   -1.733803
     71          1           0        4.008682   -2.644786    0.094063
     72          6           0        5.590777    0.273685    2.978302
     73          6           0        6.339034    0.550704    0.706666
     74          1           0        4.929115    0.174889   -0.837812
     75          6           0        4.383193   -3.620298   -3.141360
     76          1           0        3.526396   -2.649059   -4.844959
     77          1           0        5.082905   -4.390121   -1.239991
     78          6           0        6.588137    0.601294    2.097612
     79          1           0        5.766177    0.305955    4.050654
     80          1           0        7.127733    0.816041    0.008855
     81          1           0        4.862484   -4.402704   -3.722292
     82          1           0        7.566707    0.898890    2.462549
     83          6           0        1.079599    4.130840   -1.935713
     84          6           0       -0.797750    2.773647   -2.563137
     85          6           0        0.694486    5.085993   -2.875795
     86          1           0        1.954988    4.324065   -1.326525
     87          6           0       -1.180406    3.720186   -3.508071
     88          1           0       -1.408707    1.891285   -2.413195
     89          6           0       -0.431083    4.882945   -3.670361
     90          1           0        1.278226    5.995812   -2.982517
     91          1           0       -2.072484    3.547839   -4.103283
     92          1           0       -0.726948    5.629946   -4.401011
     93          6           0        3.251888    2.763643   -0.031233
     94          6           0        1.744242    2.749065    1.839475
     95          6           0        4.218413    3.393662    0.744698
     96          1           0        3.484851    2.502534   -1.060523
     97          6           0        2.715475    3.367425    2.624443
     98          1           0        0.782747    2.475121    2.262706
     99          6           0        3.954279    3.692321    2.079349
    100          1           0        5.187464    3.625151    0.313433
    101          1           0        2.504903    3.587256    3.667464
    102          1           0        4.714277    4.168596    2.692028
    103          6           0       -1.543514   -3.194712    2.232650
    104          6           0       -1.140315   -1.235412    3.561006
    105          6           0       -2.397539   -3.685852    3.220226
    106          1           0       -1.399862   -3.778025    1.329620
    107          6           0       -1.978703   -1.731106    4.555149
    108          1           0       -0.704766   -0.246796    3.675667
    109          6           0       -2.613291   -2.961612    4.387587
    110          1           0       -2.895043   -4.639550    3.069636
    111          1           0       -2.149306   -1.146532    5.454350
    112          1           0       -3.278102   -3.343949    5.156146
    113          6           0        0.964617   -3.759359    0.328369
    114          6           0       -0.001215   -2.501591   -1.479226
    115          6           0        1.241233   -4.804274   -0.545684
    116          1           0        1.248979   -3.845086    1.374545
    117          6           0        0.285541   -3.539786   -2.361649
    118          1           0       -0.446771   -1.576199   -1.827537
    119          6           0        0.902657   -4.695588   -1.894788
    120          1           0        1.736748   -5.698573   -0.179254
    121          1           0        0.046605   -3.434034   -3.416268
    122          1           0        1.136948   -5.504507   -2.580557
 ---------------------------------------------------------------------
 Rotational constants (GHZ):      0.0515803      0.0371676      0.0340828
 General basis read from cards:  (5D, 7F)
 ======================================================================================================
                                       Pseudopotential Parameters
 ======================================================================================================
  Center     Atomic      Valence      Angular      Power
  Number     Number     Electrons     Momentum     of R      Exponent        Coefficient   SO-Coeffient
 ======================================================================================================
    1          1
                                   No pseudopotential on this center.
    2          6
                                   No pseudopotential on this center.
    3          6
                                   No pseudopotential on this center.
    4          8
                                   No pseudopotential on this center.
    5          6
                                   No pseudopotential on this center.
    6          1
                                   No pseudopotential on this center.
    7          1
                                   No pseudopotential on this center.
    8          1
                                   No pseudopotential on this center.
    9          1
                                   No pseudopotential on this center.
   10          7
                                   No pseudopotential on this center.
   11          7
                                   No pseudopotential on this center.
   12          6
                                   No pseudopotential on this center.
   13          1
                                   No pseudopotential on this center.
   14          1
                                   No pseudopotential on this center.
   15          6
                                   No pseudopotential on this center.
   16          1
                                   No pseudopotential on this center.
   17          1
                                   No pseudopotential on this center.
   18          6
                                   No pseudopotential on this center.
   19          6
                                   No pseudopotential on this center.
   20          6
                                   No pseudopotential on this center.
   21          6
                                   No pseudopotential on this center.
   22          6
                                   No pseudopotential on this center.
   23          6
                                   No pseudopotential on this center.
   24          6
                                   No pseudopotential on this center.
   25          6
                                   No pseudopotential on this center.
   26          6
                                   No pseudopotential on this center.
   27          1
                                   No pseudopotential on this center.
   28          1
                                   No pseudopotential on this center.
   29          1
                                   No pseudopotential on this center.
   30          1
                                   No pseudopotential on this center.
   31          1
                                   No pseudopotential on this center.
   32          1
                                   No pseudopotential on this center.
   33          1
                                   No pseudopotential on this center.
   34          1
                                   No pseudopotential on this center.
   35          1
                                   No pseudopotential on this center.
   36          1
                                   No pseudopotential on this center.
   37          1
                                   No pseudopotential on this center.
   38          1
                                   No pseudopotential on this center.
   39          1
                                   No pseudopotential on this center.
   40          1
                                   No pseudopotential on this center.
   41          1
                                   No pseudopotential on this center.
   42          1
                                   No pseudopotential on this center.
   43          1
                                   No pseudopotential on this center.
   44         44           16
                                      G and up 
                                                     2        1.0000000        0.00000000    0.00000000
                                      S - G
                                                     2       11.1052690      209.82297100    0.00000000
                                                     2        5.4147450       30.65472600    0.00000000
                                      P - G
                                                     2        9.7712710      146.33618200    0.00000000
                                                     2        5.0739910       24.12787700    0.00000000
                                      D - G
                                                     2        7.6714230       67.51589700    0.00000000
                                                     2        4.1365650        9.87010400    0.00000000
                                      F - G
                                                     2       11.3600000      -28.34061600    0.00000000
                                                     2        5.6800000       -4.94462900    0.00000000
   45         15
                                   No pseudopotential on this center.
   46         15
                                   No pseudopotential on this center.
   47          6
                                   No pseudopotential on this center.
   48          6
                                   No pseudopotential on this center.
   49          6
                                   No pseudopotential on this center.
   50          6
                                   No pseudopotential on this center.
   51          6
                                   No pseudopotential on this center.
   52          6
                                   No pseudopotential on this center.
   53          6
                                   No pseudopotential on this center.
   54          6
                                   No pseudopotential on this center.
   55          6
                                   No pseudopotential on this center.
   56          6
                                   No pseudopotential on this center.
   57          6
                                   No pseudopotential on this center.
   58          6
                                   No pseudopotential on this center.
   59          1
                                   No pseudopotential on this center.
   60          6
                                   No pseudopotential on this center.
   61          6
                                   No pseudopotential on this center.
   62          1
                                   No pseudopotential on this center.
   63          6
                                   No pseudopotential on this center.
   64          6
                                   No pseudopotential on this center.
   65          1
                                   No pseudopotential on this center.
   66          6
                                   No pseudopotential on this center.
   67          6
                                   No pseudopotential on this center.
   68          1
                                   No pseudopotential on this center.
   69          6
                                   No pseudopotential on this center.
   70          6
                                   No pseudopotential on this center.
   71          1
                                   No pseudopotential on this center.
   72          6
                                   No pseudopotential on this center.
   73          6
                                   No pseudopotential on this center.
   74          1
                                   No pseudopotential on this center.
   75          6
                                   No pseudopotential on this center.
   76          1
                                   No pseudopotential on this center.
   77          1
                                   No pseudopotential on this center.
   78          6
                                   No pseudopotential on this center.
   79          1
                                   No pseudopotential on this center.
   80          1
                                   No pseudopotential on this center.
   81          1
                                   No pseudopotential on this center.
   82          1
                                   No pseudopotential on this center.
   83          6
                                   No pseudopotential on this center.
   84          6
                                   No pseudopotential on this center.
   85          6
                                   No pseudopotential on this center.
   86          1
                                   No pseudopotential on this center.
   87          6
                                   No pseudopotential on this center.
   88          1
                                   No pseudopotential on this center.
   89          6
                                   No pseudopotential on this center.
   90          1
                                   No pseudopotential on this center.
   91          1
                                   No pseudopotential on this center.
   92          1
                                   No pseudopotential on this center.
   93          6
                                   No pseudopotential on this center.
   94          6
                                   No pseudopotential on this center.
   95          6
                                   No pseudopotential on this center.
   96          1
                                   No pseudopotential on this center.
   97          6
                                   No pseudopotential on this center.
   98          1
                                   No pseudopotential on this center.
   99          6
                                   No pseudopotential on this center.
  100          1
                                   No pseudopotential on this center.
  101          1
                                   No pseudopotential on this center.
  102          1
                                   No pseudopotential on this center.
  103          6
                                   No pseudopotential on this center.
  104          6
                                   No pseudopotential on this center.
  105          6
                                   No pseudopotential on this center.
  106          1
                                   No pseudopotential on this center.
  107          6
                                   No pseudopotential on this center.
  108          1
                                   No pseudopotential on this center.
  109          6
                                   No pseudopotential on this center.
  110          1
                                   No pseudopotential on this center.
  111          1
                                   No pseudopotential on this center.
  112          1
                                   No pseudopotential on this center.
  113          6
                                   No pseudopotential on this center.
  114          6
                                   No pseudopotential on this center.
  115          6
                                   No pseudopotential on this center.
  116          1
                                   No pseudopotential on this center.
  117          6
                                   No pseudopotential on this center.
  118          1
                                   No pseudopotential on this center.
  119          6
                                   No pseudopotential on this center.
  120          1
                                   No pseudopotential on this center.
  121          1
                                   No pseudopotential on this center.
  122          1
                                   No pseudopotential on this center.
 ======================================================================================================
 There are  1108 symmetry adapted cartesian basis functions of A   symmetry.
 There are  1042 symmetry adapted basis functions of A   symmetry.
  1042 basis functions,  2109 primitive gaussians,  1108 cartesian basis functions
   237 alpha electrons      237 beta electrons
       nuclear repulsion energy     11645.6872024570 Hartrees.
 NAtoms=  122 NActive=  122 NUniq=  122 SFac= 1.00D+00 NAtFMM=   60 NAOKFM=T Big=T
 Integral buffers will be    131072 words long.
 Raffenetti 2 integral format.
 Two-electron integral symmetry is turned on.
 Nuclear repulsion after empirical dispersion term =    11645.5017894858 Hartrees.
 Force inversion solution in PCM.
 ------------------------------------------------------------------------------
 Polarizable Continuum Model (PCM)
 =================================
 Model                : PCM (using non-symmetric T matrix).
 Atomic radii         : UFF (Universal Force Field).
 Polarization charges : Total charges.
 Charge compensation  : None.
 Solution method      : Matrix inversion.
 Cavity type          : Scaled VdW (van der Waals Surface) (Alpha=1.100).
 Cavity algorithm     : GePol (No added spheres)
                        Default sphere list used, NSphG=  122.
                        Lebedev-Laikov grids with approx.  5.0 points / Ang**2.
                        Smoothing algorithm: Karplus/York (Gamma=1.0000).
                        Polarization charges: spherical gaussians, with
                                              point-specific exponents (IZeta= 3).
                        Self-potential: point-specific (ISelfS= 7).
                        Self-field    : sphere-specific E.n sum rule (ISelfD= 2).
 1st derivatives      : Analytical E(r).r(x)/FMM algorithm (CHGder, D1EAlg=3).
                        Cavity 1st derivative terms included.
 2nd derivatives      : Analytical E(r).r(xy)/FMM algorithm (CHGder, D2EAlg=3).
                        Cavity 2nd derivative terms included.
 Solvent              : 2-Propanol, Eps=  19.264000 Eps(inf)=   1.897782
 ------------------------------------------------------------------------------
 One-electron integrals computed using PRISM.
   1 Symmetry operations used in ECPInt.
 ECPInt:  NShTT=   73920 NPrTT=  460710 LenC2=   56403 LenP2D=  174374.
 LDataN:  DoStor=T MaxTD1= 6 Len=  172
 NBasis=  1042 RedAO= T EigKep=  2.39D-04  NBF=  1042
 NBsUse=  1042 1.00D-06 EigRej= -1.00D+00 NBFU=  1042
 Defaulting to unpruned grid for atomic number  44.
 ExpMin= 1.60D-02 ExpMax= 1.94D+04 ExpMxC= 2.91D+03 IAcc=3 IRadAn=         5 AccDes= 0.00D+00
 Harris functional with IExCor= 4639 and IRadAn=       5 diagonalized for initial guess.
 HarFok:  IExCor= 4639 AccDes= 0.00D+00 IRadAn=         5 IDoV= 1 UseB2=F ITyADJ=14
 ICtDFT=  3500011 ScaDFX=  1.000000  1.000000  1.000000  1.000000
 Defaulting to unpruned grid for atomic number  44.
 Defaulting to unpruned grid for atomic number  44.
 Defaulting to unpruned grid for atomic number  44.
 Defaulting to unpruned grid for atomic number  44.
 Defaulting to unpruned grid for atomic number  44.
 Defaulting to unpruned grid for atomic number  44.
 Defaulting to unpruned grid for atomic number  44.
 Defaulting to unpruned grid for atomic number  44.
 Defaulting to unpruned grid for atomic number  44.
 Defaulting to unpruned grid for atomic number  44.
 Defaulting to unpruned grid for atomic number  44.
 Defaulting to unpruned grid for atomic number  44.
 Defaulting to unpruned grid for atomic number  44.
 Defaulting to unpruned grid for atomic number  44.
 FoFCou: FMM=F IPFlag=           0 FMFlag=      100000 FMFlg1=        2001
         NFxFlg=           0 DoJE=T BraDBF=F KetDBF=T FulRan=T
         wScrn=  0.000000 ICntrl=     500 IOpCl=  0 I1Cent=   200000004 NGrid=           0
         NMat0=    1 NMatS0=      1 NMatT0=    0 NMatD0=    1 NMtDS0=    0 NMtDT0=    0
 Petite list used in FoFCou.
 Requested convergence on RMS density matrix=1.00D-08 within 128 cycles.
 Requested convergence on MAX density matrix=1.00D-06.
 Requested convergence on             energy=1.00D-06.
 No special actions if energy rises.
 Defaulting to unpruned grid for atomic number  44.
 Defaulting to unpruned grid for atomic number  44.
 Defaulting to unpruned grid for atomic number  44.
 Defaulting to unpruned grid for atomic number  44.
 Defaulting to unpruned grid for atomic number  44.
 Defaulting to unpruned grid for atomic number  44.
 Defaulting to unpruned grid for atomic number  44.
 Defaulting to unpruned grid for atomic number  44.
 Defaulting to unpruned grid for atomic number  44.
 Defaulting to unpruned grid for atomic number  44.
 Defaulting to unpruned grid for atomic number  44.
 Defaulting to unpruned grid for atomic number  44.
 Defaulting to unpruned grid for atomic number  44.
 Defaulting to unpruned grid for atomic number  44.
 Inv3:  Mode=1 IEnd=   134147907.
 Iteration    1 A*A^-1 deviation from unit magnitude is 9.55D-15 for   6682.
 Iteration    1 A*A^-1 deviation from orthogonality  is 6.00D-15 for   6687   4445.
 Iteration    1 A^-1*A deviation from unit magnitude is 9.77D-15 for   6682.
 Iteration    1 A^-1*A deviation from orthogonality  is 8.21D-11 for   5324   5296.
 Error on total polarization charges =  0.01488
 SCF Done:  E(RwB97XD) =  -3206.77035576     A.U. after   18 cycles
            NFock= 18  Conv=0.49D-08     -V/T= 2.0250
 DoSCS=F DFT=T ScalE2(SS,OS)=  1.000000  1.000000
 Range of M.O.s used for correlation:     1  1042
 NBasis=  1042 NAE=   237 NBE=   237 NFC=     0 NFV=     0
 NROrb=   1042 NOA=   237 NOB=   237 NVA=   805 NVB=   805
 PrsmSu:  requested number of processors reduced to:  12 ShMem   1 Linda.
   1 Symmetry operations used in ECPInt.
 ECPInt:  NShTT=   73920 NPrTT=  460710 LenC2=   56403 LenP2D=  174374.
 LDataN:  DoStor=T MaxTD1= 7 Len=  274
 Number of processors reduced to   3 by ecpmxn.
 Symmetrizing basis deriv contribution to polar:
 IMax=3 JMax=2 DiffMx= 0.00D+00
 G2DrvN: will do    62 centers at a time, making    2 passes.
 Calling FoFCou, ICntrl=  3107 FMM=T I1Cent=   0 AccDes= 0.00D+00.
 Defaulting to unpruned grid for atomic number  44.
 Defaulting to unpruned grid for atomic number  44.
 Defaulting to unpruned grid for atomic number  44.
 Defaulting to unpruned grid for atomic number  44.
 Defaulting to unpruned grid for atomic number  44.
 Defaulting to unpruned grid for atomic number  44.
 Defaulting to unpruned grid for atomic number  44.
 Defaulting to unpruned grid for atomic number  44.
 Defaulting to unpruned grid for atomic number  44.
 Defaulting to unpruned grid for atomic number  44.
 Defaulting to unpruned grid for atomic number  44.
 Defaulting to unpruned grid for atomic number  44.
 Defaulting to unpruned grid for atomic number  44.
 Defaulting to unpruned grid for atomic number  44.
 Calling FoFCou, ICntrl=  3107 FMM=T I1Cent=   0 AccDes= 0.00D+00.
 NEqPCM:  Using equilibrium solvation (IEInf=0, Eps=  19.2640, EpsInf=   1.8978)
 G2PCM: DoFxE=T DoFxN=T DoGrad=T DoDP/DQ/DG/TGxP=FFFF NFrqRd=   0 IEInf=0 SqF1=F DoCFld=F IF1Alg=4.
 End of G2Drv F.D. properties file   721 does not exist.
 End of G2Drv F.D. properties file   722 does not exist.
 End of G2Drv F.D. properties file   788 does not exist.
          IDoAtm=11111111111111111111111111111111111111111111111111
          IDoAtm=11111111111111111111111111111111111111111111111111
          IDoAtm=1111111111111111111111
 NEqPCM:  Using equilibrium solvation (IEInf=0, Eps=  19.2640, EpsInf=   1.8978)
          Differentiating once with respect to electric field.
                with respect to dipole field.
          Differentiating once with respect to nuclear coordinates.
 Defaulting to unpruned grid for atomic number  44.
 CalDSu exits because no D1Ps are significant.
 Defaulting to unpruned grid for atomic number  44.
 Defaulting to unpruned grid for atomic number  44.
 Defaulting to unpruned grid for atomic number  44.
 Defaulting to unpruned grid for atomic number  44.
 Defaulting to unpruned grid for atomic number  44.
 Defaulting to unpruned grid for atomic number  44.
 Defaulting to unpruned grid for atomic number  44.
 Defaulting to unpruned grid for atomic number  44.
 Defaulting to unpruned grid for atomic number  44.
 Defaulting to unpruned grid for atomic number  44.
 Defaulting to unpruned grid for atomic number  44.
 Defaulting to unpruned grid for atomic number  44.
 Defaulting to unpruned grid for atomic number  44.
 Defaulting to unpruned grid for atomic number  44.
          There are   369 degrees of freedom in the 1st order CPHF.  IDoFFX=6 NUNeed=     3.
    369 vectors produced by pass  0 Test12= 1.91D-13 1.00D-09 XBig12= 4.13D+02 4.57D+00.
 AX will form    72 AO Fock derivatives at one time.
    369 vectors produced by pass  1 Test12= 1.91D-13 1.00D-09 XBig12= 3.19D+01 5.49D-01.
    369 vectors produced by pass  2 Test12= 1.91D-13 1.00D-09 XBig12= 7.67D-01 1.07D-01.
    366 vectors produced by pass  3 Test12= 1.91D-13 1.00D-09 XBig12= 9.93D-03 8.76D-03.
    366 vectors produced by pass  4 Test12= 1.91D-13 1.00D-09 XBig12= 8.55D-05 7.67D-04.
    366 vectors produced by pass  5 Test12= 1.91D-13 1.00D-09 XBig12= 6.09D-07 6.45D-05.
    347 vectors produced by pass  6 Test12= 1.91D-13 1.00D-09 XBig12= 3.76D-09 4.06D-06.
     76 vectors produced by pass  7 Test12= 1.91D-13 1.00D-09 XBig12= 2.03D-11 2.31D-07.
      8 vectors produced by pass  8 Test12= 1.91D-13 1.00D-09 XBig12= 1.11D-13 1.59D-08.
      3 vectors produced by pass  9 Test12= 1.91D-13 1.00D-09 XBig12= 1.45D-15 1.35D-09.
 InvSVY:  IOpt=1 It=  1 EMax= 3.20D-14
 Solved reduced A of dimension  2639 with   369 vectors.
 Isotropic polarizability for W=    0.000000      978.84 Bohr**3.
 End of Minotr F.D. properties file   721 does not exist.
 End of Minotr F.D. properties file   722 does not exist.
 End of Minotr F.D. properties file   788 does not exist.

 **********************************************************************

            Population analysis using the SCF density.

 **********************************************************************

 Orbital symmetries:
       Occupied  (A) (A) (A) (A) (A) (A) (A) (A) (A) (A) (A) (A)
                 (A) (A) (A) (A) (A) (A) (A) (A) (A) (A) (A) (A)
                 (A) (A) (A) (A) (A) (A) (A) (A) (A) (A) (A) (A)
                 (A) (A) (A) (A) (A) (A) (A) (A) (A) (A) (A) (A)
                 (A) (A) (A) (A) (A) (A) (A) (A) (A) (A) (A) (A)
                 (A) (A) (A) (A) (A) (A) (A) (A) (A) (A) (A) (A)
                 (A) (A) (A) (A) (A) (A) (A) (A) (A) (A) (A) (A)
                 (A) (A) (A) (A) (A) (A) (A) (A) (A) (A) (A) (A)
                 (A) (A) (A) (A) (A) (A) (A) (A) (A) (A) (A) (A)
                 (A) (A) (A) (A) (A) (A) (A) (A) (A) (A) (A) (A)
                 (A) (A) (A) (A) (A) (A) (A) (A) (A) (A) (A) (A)
                 (A) (A) (A) (A) (A) (A) (A) (A) (A) (A) (A) (A)
                 (A) (A) (A) (A) (A) (A) (A) (A) (A) (A) (A) (A)
                 (A) (A) (A) (A) (A) (A) (A) (A) (A) (A) (A) (A)
                 (A) (A) (A) (A) (A) (A) (A) (A) (A) (A) (A) (A)
                 (A) (A) (A) (A) (A) (A) (A) (A) (A) (A) (A) (A)
                 (A) (A) (A) (A) (A) (A) (A) (A) (A) (A) (A) (A)
                 (A) (A) (A) (A) (A) (A) (A) (A) (A) (A) (A) (A)
                 (A) (A) (A) (A) (A) (A) (A) (A) (A) (A) (A) (A)
                 (A) (A) (A) (A) (A) (A) (A) (A) (A)
       Virtual   (A) (A) (A) (A) (A) (A) (A) (A) (A) (A) (A) (A)
                 (A) (A) (A) (A) (A) (A) (A) (A) (A) (A) (A) (A)
                 (A) (A) (A) (A) (A) (A) (A) (A) (A) (A) (A) (A)
                 (A) (A) (A) (A) (A) (A) (A) (A) (A) (A) (A) (A)
                 (A) (A) (A) (A) (A) (A) (A) (A) (A) (A) (A) (A)
                 (A) (A) (A) (A) (A) (A) (A) (A) (A) (A) (A) (A)
                 (A) (A) (A) (A) (A) (A) (A) (A) (A) (A) (A) (A)
                 (A) (A) (A) (A) (A) (A) (A) (A) (A) (A) (A) (A)
                 (A) (A) (A) (A) (A) (A) (A) (A) (A) (A) (A) (A)
                 (A) (A) (A) (A) (A) (A) (A) (A) (A) (A) (A) (A)
                 (A) (A) (A) (A) (A) (A) (A) (A) (A) (A) (A) (A)
                 (A) (A) (A) (A) (A) (A) (A) (A) (A) (A) (A) (A)
                 (A) (A) (A) (A) (A) (A) (A) (A) (A) (A) (A) (A)
                 (A) (A) (A) (A) (A) (A) (A) (A) (A) (A) (A) (A)
                 (A) (A) (A) (A) (A) (A) (A) (A) (A) (A) (A) (A)
                 (A) (A) (A) (A) (A) (A) (A) (A) (A) (A) (A) (A)
                 (A) (A) (A) (A) (A) (A) (A) (A) (A) (A) (A) (A)
                 (A) (A) (A) (A) (A) (A) (A) (A) (A) (A) (A) (A)
                 (A) (A) (A) (A) (A) (A) (A) (A) (A) (A) (A) (A)
                 (A) (A) (A) (A) (A) (A) (A) (A) (A) (A) (A) (A)
                 (A) (A) (A) (A) (A) (A) (A) (A) (A) (A) (A) (A)
                 (A) (A) (A) (A) (A) (A) (A) (A) (A) (A) (A) (A)
                 (A) (A) (A) (A) (A) (A) (A) (A) (A) (A) (A) (A)
                 (A) (A) (A) (A) (A) (A) (A) (A) (A) (A) (A) (A)
                 (A) (A) (A) (A) (A) (A) (A) (A) (A) (A) (A) (A)
                 (A) (A) (A) (A) (A) (A) (A) (A) (A) (A) (A) (A)
                 (A) (A) (A) (A) (A) (A) (A) (A) (A) (A) (A) (A)
                 (A) (A) (A) (A) (A) (A) (A) (A) (A) (A) (A) (A)
                 (A) (A) (A) (A) (A) (A) (A) (A) (A) (A) (A) (A)
                 (A) (A) (A) (A) (A) (A) (A) (A) (A) (A) (A) (A)
                 (A) (A) (A) (A) (A) (A) (A) (A) (A) (A) (A) (A)
                 (A) (A) (A) (A) (A) (A) (A) (A) (A) (A) (A) (A)
                 (A) (A) (A) (A) (A) (A) (A) (A) (A) (A) (A) (A)
                 (A) (A) (A) (A) (A) (A) (A) (A) (A) (A) (A) (A)
                 (A) (A) (A) (A) (A) (A) (A) (A) (A) (A) (A) (A)
                 (A) (A) (A) (A) (A) (A) (A) (A) (A) (A) (A) (A)
                 (A) (A) (A) (A) (A) (A) (A) (A) (A) (A) (A) (A)
                 (A) (A) (A) (A) (A) (A) (A) (A) (A) (A) (A) (A)
                 (A) (A) (A) (A) (A) (A) (A) (A) (A) (A) (A) (A)
                 (A) (A) (A) (A) (A) (A) (A) (A) (A) (A) (A) (A)
                 (A) (A) (A) (A) (A) (A) (A) (A) (A) (A) (A) (A)
                 (A) (A) (A) (A) (A) (A) (A) (A) (A) (A) (A) (A)
                 (A) (A) (A) (A) (A) (A) (A) (A) (A) (A) (A) (A)
                 (A) (A) (A) (A) (A) (A) (A) (A) (A) (A) (A) (A)
                 (A) (A) (A) (A) (A) (A) (A) (A) (A) (A) (A) (A)
                 (A) (A) (A) (A) (A) (A) (A) (A) (A) (A) (A) (A)
                 (A) (A) (A) (A) (A) (A) (A) (A) (A) (A) (A) (A)
                 (A) (A) (A) (A) (A) (A) (A) (A) (A) (A) (A) (A)
                 (A) (A) (A) (A) (A) (A) (A) (A) (A) (A) (A) (A)
                 (A) (A) (A) (A) (A) (A) (A) (A) (A) (A) (A) (A)
                 (A) (A) (A) (A) (A) (A) (A) (A) (A) (A) (A) (A)
                 (A) (A) (A) (A) (A) (A) (A) (A) (A) (A) (A) (A)
                 (A) (A) (A) (A) (A) (A) (A) (A) (A) (A) (A) (A)
                 (A) (A) (A) (A) (A) (A) (A) (A) (A) (A) (A) (A)
                 (A) (A) (A) (A) (A) (A) (A) (A) (A) (A) (A) (A)
                 (A) (A) (A) (A) (A) (A) (A) (A) (A) (A) (A) (A)
                 (A) (A) (A) (A) (A) (A) (A) (A) (A) (A) (A) (A)
                 (A) (A) (A) (A) (A) (A) (A) (A) (A) (A) (A) (A)
                 (A) (A) (A) (A) (A) (A) (A) (A) (A) (A) (A) (A)
                 (A) (A) (A) (A) (A) (A) (A) (A) (A) (A) (A) (A)
                 (A) (A) (A) (A) (A) (A) (A) (A) (A) (A) (A) (A)
                 (A) (A) (A) (A) (A) (A) (A) (A) (A) (A) (A) (A)
                 (A) (A) (A) (A) (A) (A) (A) (A) (A) (A) (A) (A)
                 (A) (A) (A) (A) (A) (A) (A) (A) (A) (A) (A) (A)
                 (A) (A) (A) (A) (A) (A) (A) (A) (A) (A) (A) (A)
                 (A) (A) (A) (A) (A) (A) (A) (A) (A) (A) (A) (A)
                 (A) (A) (A) (A) (A) (A) (A) (A) (A) (A) (A) (A)
                 (A)
 The electronic state is 1-A.
 Alpha  occ. eigenvalues --  -77.25106 -77.24914 -19.23091 -14.45533 -14.45481
 Alpha  occ. eigenvalues --  -10.38352 -10.33691 -10.33417 -10.31250 -10.31148
 Alpha  occ. eigenvalues --  -10.30858 -10.30583 -10.30537 -10.30531 -10.30399
 Alpha  occ. eigenvalues --  -10.30362 -10.30332 -10.30246 -10.30192 -10.30170
 Alpha  occ. eigenvalues --  -10.30167 -10.30152 -10.30104 -10.30044 -10.29838
 Alpha  occ. eigenvalues --  -10.29778 -10.29760 -10.29733 -10.29682 -10.29653
 Alpha  occ. eigenvalues --  -10.29594 -10.29590 -10.29559 -10.29557 -10.29548
 Alpha  occ. eigenvalues --  -10.29535 -10.29511 -10.29506 -10.29500 -10.29461
 Alpha  occ. eigenvalues --  -10.29447 -10.29441 -10.29394 -10.29385 -10.29348
 Alpha  occ. eigenvalues --  -10.29341 -10.29307 -10.29292 -10.29289 -10.29282
 Alpha  occ. eigenvalues --  -10.29248 -10.29180 -10.29146 -10.29135 -10.29072
 Alpha  occ. eigenvalues --  -10.29068 -10.28693 -10.28675 -10.27970 -10.27694
 Alpha  occ. eigenvalues --  -10.27648 -10.26954 -10.26954  -6.68545  -6.68360
 Alpha  occ. eigenvalues --   -4.83349  -4.83310  -4.83158  -4.83126  -4.82932
 Alpha  occ. eigenvalues --   -4.82751  -3.05312  -1.89438  -1.88961  -1.87753
 Alpha  occ. eigenvalues --   -1.11148  -1.02500  -0.98752  -0.98646  -0.97056
 Alpha  occ. eigenvalues --   -0.96258  -0.95775  -0.95711  -0.95185  -0.94989
 Alpha  occ. eigenvalues --   -0.92974  -0.91928  -0.89270  -0.87870  -0.86852
 Alpha  occ. eigenvalues --   -0.86569  -0.86199  -0.85574  -0.85022  -0.84455
 Alpha  occ. eigenvalues --   -0.84438  -0.84164  -0.83975  -0.83864  -0.83772
 Alpha  occ. eigenvalues --   -0.83635  -0.83472  -0.83151  -0.82635  -0.81702
 Alpha  occ. eigenvalues --   -0.80479  -0.79611  -0.76963  -0.75493  -0.74450
 Alpha  occ. eigenvalues --   -0.72177  -0.71517  -0.71215  -0.71071  -0.70372
 Alpha  occ. eigenvalues --   -0.70192  -0.69939  -0.69911  -0.69771  -0.69599
 Alpha  occ. eigenvalues --   -0.69318  -0.68981  -0.68599  -0.68332  -0.66148
 Alpha  occ. eigenvalues --   -0.65403  -0.64949  -0.63819  -0.62388  -0.61111
 Alpha  occ. eigenvalues --   -0.61094  -0.60619  -0.59989  -0.59794  -0.59615
 Alpha  occ. eigenvalues --   -0.59047  -0.58898  -0.58818  -0.58592  -0.57808
 Alpha  occ. eigenvalues --   -0.56886  -0.56493  -0.56318  -0.54871  -0.54512
 Alpha  occ. eigenvalues --   -0.54211  -0.54179  -0.53922  -0.53634  -0.53500
 Alpha  occ. eigenvalues --   -0.53126  -0.53072  -0.53023  -0.52916  -0.52841
 Alpha  occ. eigenvalues --   -0.52775  -0.52617  -0.52433  -0.52114  -0.51627
 Alpha  occ. eigenvalues --   -0.51385  -0.50970  -0.50901  -0.50471  -0.50262
 Alpha  occ. eigenvalues --   -0.50167  -0.49984  -0.49804  -0.49693  -0.49629
 Alpha  occ. eigenvalues --   -0.49328  -0.49127  -0.48994  -0.48806  -0.48325
 Alpha  occ. eigenvalues --   -0.48174  -0.47665  -0.47573  -0.47408  -0.46890
 Alpha  occ. eigenvalues --   -0.46625  -0.46459  -0.46024  -0.45948  -0.45806
 Alpha  occ. eigenvalues --   -0.45486  -0.45305  -0.44916  -0.44510  -0.44429
 Alpha  occ. eigenvalues --   -0.44101  -0.43768  -0.43571  -0.43442  -0.43036
 Alpha  occ. eigenvalues --   -0.42946  -0.42613  -0.42466  -0.42193  -0.42044
 Alpha  occ. eigenvalues --   -0.42010  -0.41941  -0.41676  -0.41354  -0.41205
 Alpha  occ. eigenvalues --   -0.40599  -0.40283  -0.40223  -0.39915  -0.39662
 Alpha  occ. eigenvalues --   -0.39430  -0.38778  -0.38548  -0.36735  -0.36444
 Alpha  occ. eigenvalues --   -0.36021  -0.35559  -0.35323  -0.33438  -0.32965
 Alpha  occ. eigenvalues --   -0.32961  -0.32838  -0.32544  -0.32417  -0.32303
 Alpha  occ. eigenvalues --   -0.31817  -0.31538  -0.31450  -0.31391  -0.30826
 Alpha  occ. eigenvalues --   -0.30639  -0.28381  -0.28065  -0.26390  -0.25980
 Alpha  occ. eigenvalues --   -0.25170  -0.24904
 Alpha virt. eigenvalues --    0.01482   0.02202   0.03622   0.04413   0.04657
 Alpha virt. eigenvalues --    0.05035   0.05405   0.05700   0.06049   0.06325
 Alpha virt. eigenvalues --    0.06688   0.06802   0.07236   0.07563   0.07725
 Alpha virt. eigenvalues --    0.09000   0.09772   0.10018   0.10689   0.11262
 Alpha virt. eigenvalues --    0.12450   0.12652   0.14942   0.15443   0.16304
 Alpha virt. eigenvalues --    0.16512   0.16947   0.17130   0.17719   0.18221
 Alpha virt. eigenvalues --    0.18427   0.18854   0.19331   0.19508   0.19786
 Alpha virt. eigenvalues --    0.19899   0.19979   0.20454   0.20719   0.20788
 Alpha virt. eigenvalues --    0.21019   0.21545   0.21731   0.22046   0.22444
 Alpha virt. eigenvalues --    0.22490   0.22679   0.22864   0.22986   0.23172
 Alpha virt. eigenvalues --    0.23451   0.23678   0.23913   0.24132   0.24273
 Alpha virt. eigenvalues --    0.24457   0.24680   0.24913   0.25122   0.25418
 Alpha virt. eigenvalues --    0.25440   0.25615   0.25842   0.26059   0.26127
 Alpha virt. eigenvalues --    0.26228   0.26496   0.26711   0.26820   0.27020
 Alpha virt. eigenvalues --    0.27174   0.27458   0.27682   0.27743   0.27954
 Alpha virt. eigenvalues --    0.28107   0.28249   0.28390   0.28546   0.28848
 Alpha virt. eigenvalues --    0.28914   0.29349   0.29458   0.29777   0.29789
 Alpha virt. eigenvalues --    0.30053   0.30301   0.30338   0.30908   0.31083
 Alpha virt. eigenvalues --    0.31453   0.31779   0.31901   0.32298   0.32418
 Alpha virt. eigenvalues --    0.32457   0.32818   0.33130   0.33540   0.34066
 Alpha virt. eigenvalues --    0.34212   0.34398   0.34837   0.34986   0.35444
 Alpha virt. eigenvalues --    0.36222   0.36327   0.36520   0.36896   0.37126
 Alpha virt. eigenvalues --    0.37558   0.37697   0.37910   0.38228   0.38388
 Alpha virt. eigenvalues --    0.38646   0.38877   0.39087   0.39273   0.39358
 Alpha virt. eigenvalues --    0.39672   0.39772   0.39861   0.40040   0.40275
 Alpha virt. eigenvalues --    0.40506   0.40553   0.41017   0.41042   0.41435
 Alpha virt. eigenvalues --    0.41897   0.42480   0.42848   0.43001   0.43387
 Alpha virt. eigenvalues --    0.44107   0.44485   0.44746   0.44955   0.45839
 Alpha virt. eigenvalues --    0.46618   0.46642   0.47256   0.47369   0.47745
 Alpha virt. eigenvalues --    0.48091   0.48631   0.48805   0.50470   0.50606
 Alpha virt. eigenvalues --    0.52344   0.53177   0.53804   0.53992   0.54574
 Alpha virt. eigenvalues --    0.54792   0.55380   0.55403   0.56167   0.57039
 Alpha virt. eigenvalues --    0.58037   0.58140   0.58652   0.58988   0.59266
 Alpha virt. eigenvalues --    0.59698   0.60059   0.60186   0.60447   0.60526
 Alpha virt. eigenvalues --    0.60990   0.61229   0.61324   0.61683   0.61727
 Alpha virt. eigenvalues --    0.62068   0.62420   0.62626   0.62990   0.63042
 Alpha virt. eigenvalues --    0.63224   0.63501   0.63636   0.63926   0.64203
 Alpha virt. eigenvalues --    0.64403   0.64469   0.64690   0.64762   0.65057
 Alpha virt. eigenvalues --    0.65139   0.65389   0.65482   0.65878   0.66198
 Alpha virt. eigenvalues --    0.66396   0.66544   0.66629   0.66815   0.66868
 Alpha virt. eigenvalues --    0.67078   0.67214   0.67679   0.68032   0.68126
 Alpha virt. eigenvalues --    0.68420   0.68553   0.68769   0.68920   0.69171
 Alpha virt. eigenvalues --    0.69285   0.69484   0.69530   0.69787   0.69885
 Alpha virt. eigenvalues --    0.70220   0.70364   0.70625   0.70632   0.70944
 Alpha virt. eigenvalues --    0.71137   0.71273   0.71373   0.71488   0.71671
 Alpha virt. eigenvalues --    0.71761   0.71966   0.72182   0.72691   0.72794
 Alpha virt. eigenvalues --    0.72940   0.73236   0.73464   0.73794   0.74503
 Alpha virt. eigenvalues --    0.74756   0.75169   0.75379   0.75769   0.75946
 Alpha virt. eigenvalues --    0.76056   0.76208   0.76588   0.76998   0.77312
 Alpha virt. eigenvalues --    0.77317   0.77568   0.78114   0.78137   0.78521
 Alpha virt. eigenvalues --    0.79307   0.79460   0.79717   0.79978   0.80404
 Alpha virt. eigenvalues --    0.81128   0.81669   0.81897   0.81982   0.82423
 Alpha virt. eigenvalues --    0.82736   0.82835   0.83097   0.83837   0.84269
 Alpha virt. eigenvalues --    0.84654   0.85255   0.85399   0.85771   0.85904
 Alpha virt. eigenvalues --    0.86445   0.87209   0.87362   0.87651   0.88085
 Alpha virt. eigenvalues --    0.88556   0.88984   0.89880   0.90278   0.90367
 Alpha virt. eigenvalues --    0.90692   0.91047   0.91536   0.91654   0.91846
 Alpha virt. eigenvalues --    0.92168   0.92826   0.92907   0.93175   0.93241
 Alpha virt. eigenvalues --    0.93764   0.93798   0.93900   0.94088   0.94172
 Alpha virt. eigenvalues --    0.94261   0.94523   0.94600   0.94752   0.94835
 Alpha virt. eigenvalues --    0.94988   0.95084   0.95353   0.95525   0.95558
 Alpha virt. eigenvalues --    0.95710   0.95861   0.96046   0.96230   0.96598
 Alpha virt. eigenvalues --    0.96714   0.97097   0.97278   0.97451   0.97639
 Alpha virt. eigenvalues --    0.97822   0.98091   0.98527   0.98570   0.98815
 Alpha virt. eigenvalues --    0.99117   0.99512   0.99612   0.99844   1.00073
 Alpha virt. eigenvalues --    1.00388   1.00508   1.00570   1.01196   1.01382
 Alpha virt. eigenvalues --    1.01656   1.01757   1.01789   1.02031   1.02428
 Alpha virt. eigenvalues --    1.02696   1.02814   1.03345   1.03476   1.03673
 Alpha virt. eigenvalues --    1.03784   1.04046   1.04413   1.04667   1.04757
 Alpha virt. eigenvalues --    1.04937   1.05182   1.05441   1.05514   1.06045
 Alpha virt. eigenvalues --    1.06318   1.06661   1.06944   1.07157   1.07466
 Alpha virt. eigenvalues --    1.07907   1.08136   1.08622   1.08690   1.08976
 Alpha virt. eigenvalues --    1.09270   1.09678   1.09867   1.10494   1.10586
 Alpha virt. eigenvalues --    1.10925   1.11104   1.11329   1.11595   1.11744
 Alpha virt. eigenvalues --    1.12176   1.12706   1.12932   1.13135   1.13673
 Alpha virt. eigenvalues --    1.13920   1.14237   1.14384   1.14493   1.15050
 Alpha virt. eigenvalues --    1.15444   1.15806   1.16236   1.16897   1.17312
 Alpha virt. eigenvalues --    1.17552   1.17959   1.18289   1.18619   1.18743
 Alpha virt. eigenvalues --    1.19537   1.19876   1.20504   1.20848   1.21008
 Alpha virt. eigenvalues --    1.21496   1.21574   1.21823   1.22025   1.22628
 Alpha virt. eigenvalues --    1.22845   1.23594   1.23901   1.24200   1.24855
 Alpha virt. eigenvalues --    1.25143   1.25762   1.25900   1.26430   1.26602
 Alpha virt. eigenvalues --    1.26951   1.27316   1.27677   1.28075   1.28555
 Alpha virt. eigenvalues --    1.29068   1.29637   1.30063   1.30519   1.31022
 Alpha virt. eigenvalues --    1.31147   1.31874   1.32055   1.32284   1.32880
 Alpha virt. eigenvalues --    1.33213   1.33542   1.33780   1.34377   1.34435
 Alpha virt. eigenvalues --    1.34757   1.35127   1.35236   1.35632   1.36070
 Alpha virt. eigenvalues --    1.36227   1.36640   1.37380   1.37930   1.38269
 Alpha virt. eigenvalues --    1.38347   1.39293   1.40010   1.40290   1.40469
 Alpha virt. eigenvalues --    1.40852   1.41905   1.42328   1.43300   1.43644
 Alpha virt. eigenvalues --    1.44152   1.44462   1.45326   1.45799   1.46268
 Alpha virt. eigenvalues --    1.47068   1.47923   1.48368   1.48475   1.49369
 Alpha virt. eigenvalues --    1.49526   1.50305   1.50738   1.50945   1.51422
 Alpha virt. eigenvalues --    1.51857   1.52047   1.52778   1.52901   1.53351
 Alpha virt. eigenvalues --    1.53659   1.53806   1.53998   1.54392   1.54815
 Alpha virt. eigenvalues --    1.55070   1.55278   1.55423   1.55702   1.56032
 Alpha virt. eigenvalues --    1.56429   1.56615   1.56739   1.56967   1.57214
 Alpha virt. eigenvalues --    1.57387   1.57623   1.57776   1.57859   1.57981
 Alpha virt. eigenvalues --    1.58236   1.58527   1.58646   1.58773   1.58881
 Alpha virt. eigenvalues --    1.59240   1.59647   1.59794   1.59897   1.60017
 Alpha virt. eigenvalues --    1.60177   1.60577   1.60890   1.61168   1.61672
 Alpha virt. eigenvalues --    1.62248   1.62751   1.63043   1.63397   1.64060
 Alpha virt. eigenvalues --    1.64551   1.65021   1.65466   1.66240   1.67354
 Alpha virt. eigenvalues --    1.68211   1.68680   1.69254   1.70359   1.70921
 Alpha virt. eigenvalues --    1.71075   1.72599   1.73821   1.73852   1.75042
 Alpha virt. eigenvalues --    1.75524   1.76962   1.78181   1.79097   1.79401
 Alpha virt. eigenvalues --    1.80253   1.81445   1.82969   1.84061   1.84747
 Alpha virt. eigenvalues --    1.85406   1.85922   1.86213   1.87100   1.87605
 Alpha virt. eigenvalues --    1.88403   1.89035   1.89421   1.89505   1.89672
 Alpha virt. eigenvalues --    1.90394   1.90841   1.91450   1.91614   1.91925
 Alpha virt. eigenvalues --    1.92611   1.92726   1.93320   1.93643   1.93887
 Alpha virt. eigenvalues --    1.94329   1.94566   1.95114   1.95614   1.96270
 Alpha virt. eigenvalues --    1.96760   1.96801   1.97302   1.97536   1.97950
 Alpha virt. eigenvalues --    1.98695   1.99020   1.99559   1.99856   2.00694
 Alpha virt. eigenvalues --    2.00766   2.00928   2.01146   2.01417   2.01569
 Alpha virt. eigenvalues --    2.02147   2.02223   2.02473   2.02750   2.02960
 Alpha virt. eigenvalues --    2.03410   2.03655   2.04492   2.05272   2.05539
 Alpha virt. eigenvalues --    2.06295   2.06367   2.07190   2.07632   2.08134
 Alpha virt. eigenvalues --    2.08505   2.08824   2.09401   2.09759   2.10322
 Alpha virt. eigenvalues --    2.10633   2.10988   2.11707   2.12592   2.12770
 Alpha virt. eigenvalues --    2.13454   2.13819   2.14076   2.14426   2.14883
 Alpha virt. eigenvalues --    2.15811   2.16006   2.16283   2.16626   2.17079
 Alpha virt. eigenvalues --    2.17262   2.17890   2.18722   2.19489   2.20118
 Alpha virt. eigenvalues --    2.20498   2.20821   2.20973   2.21727   2.22046
 Alpha virt. eigenvalues --    2.22486   2.22739   2.23346   2.23972   2.24131
 Alpha virt. eigenvalues --    2.24270   2.24546   2.24646   2.24908   2.25019
 Alpha virt. eigenvalues --    2.25103   2.25850   2.25924   2.26109   2.26235
 Alpha virt. eigenvalues --    2.26339   2.26602   2.26752   2.26898   2.27058
 Alpha virt. eigenvalues --    2.27834   2.27937   2.28170   2.28622   2.28863
 Alpha virt. eigenvalues --    2.29367   2.29827   2.30206   2.30295   2.30564
 Alpha virt. eigenvalues --    2.30953   2.31266   2.31597   2.31756   2.32493
 Alpha virt. eigenvalues --    2.33068   2.33687   2.33891   2.34611   2.35709
 Alpha virt. eigenvalues --    2.36434   2.36643   2.37103   2.37390   2.37850
 Alpha virt. eigenvalues --    2.38031   2.38146   2.38634   2.38747   2.38957
 Alpha virt. eigenvalues --    2.39748   2.39937   2.40030   2.40259   2.40468
 Alpha virt. eigenvalues --    2.41065   2.41097   2.41463   2.41666   2.42171
 Alpha virt. eigenvalues --    2.42270   2.42547   2.42719   2.42935   2.43181
 Alpha virt. eigenvalues --    2.43795   2.43892   2.44202   2.44335   2.44616
 Alpha virt. eigenvalues --    2.45368   2.45419   2.45844   2.47044   2.48713
 Alpha virt. eigenvalues --    2.49550   2.50389   2.51830   2.52810   2.52965
 Alpha virt. eigenvalues --    2.54963   2.56162   2.56403   2.57583   2.62934
 Alpha virt. eigenvalues --    2.63576   2.65380   2.65976   2.66303   2.66678
 Alpha virt. eigenvalues --    2.67586   2.67771   2.68458   2.69010   2.69118
 Alpha virt. eigenvalues --    2.69350   2.70399   2.70730   2.70925   2.71576
 Alpha virt. eigenvalues --    2.71857   2.73039   2.73231   2.73481   2.73745
 Alpha virt. eigenvalues --    2.73884   2.74341   2.74552   2.74778   2.74908
 Alpha virt. eigenvalues --    2.75246   2.75669   2.76083   2.76571   2.76882
 Alpha virt. eigenvalues --    2.77516   2.77878   2.78166   2.78514   2.78995
 Alpha virt. eigenvalues --    2.79103   2.80149   2.80600   2.81162   2.82072
 Alpha virt. eigenvalues --    2.82332   2.82621   2.82845   2.83986   2.84958
 Alpha virt. eigenvalues --    2.85342   2.85504   2.86400   2.86501   2.87077
 Alpha virt. eigenvalues --    2.87092   2.87401   2.87653   2.87935   2.88691
 Alpha virt. eigenvalues --    2.88989   2.89154   2.89665   2.90025   2.90813
 Alpha virt. eigenvalues --    2.91200   2.91545   2.91977   2.92828   2.93491
 Alpha virt. eigenvalues --    2.94770   2.95388   2.96487   2.97444   2.99689
 Alpha virt. eigenvalues --    3.00833   3.01444   3.03121   3.03706   3.04742
 Alpha virt. eigenvalues --    3.07331   3.08879   3.10560   3.14534   3.14965
 Alpha virt. eigenvalues --    3.15491   3.16017   3.17029   3.19812   3.21765
 Alpha virt. eigenvalues --    3.22628   3.27200   3.44340   3.47436   3.48461
 Alpha virt. eigenvalues --    3.49080   3.50715   3.50832   3.52193   3.56416
 Alpha virt. eigenvalues --    3.59203  34.92808  35.14541  35.30317  46.40669
          Condensed to atoms (all electrons):
 Mulliken charges:
               1
     1  H    0.192966
     2  C   -0.557816
     3  C    0.380679
     4  O   -0.528538
     5  C    0.060395
     6  H    0.188342
     7  H    0.196571
     8  H   -0.188054
     9  H   -0.034399
    10  N   -0.844330
    11  N   -0.859121
    12  C    0.208618
    13  H    0.420072
    14  H    0.454437
    15  C    0.231626
    16  H    0.434396
    17  H    0.438174
    18  C   -0.529274
    19  C   -0.535706
    20  C   -0.559914
    21  C   -0.549650
    22  C   -0.208734
    23  C   -0.203037
    24  C   -0.181260
    25  C   -0.181538
    26  C   -0.194834
    27  H    0.218810
    28  H    0.183081
    29  H    0.185197
    30  H    0.184897
    31  H    0.185209
    32  H    0.182307
    33  H    0.175623
    34  H    0.187702
    35  H    0.181137
    36  H    0.233378
    37  H    0.174963
    38  H    0.209814
    39  H    0.176892
    40  H    0.175509
    41  H    0.191276
    42  H    0.188543
    43  H    0.180170
    44  Ru  -0.751141
    45  P    0.600789
    46  P    0.615695
    47  C   -0.135879
    48  C   -0.144670
    49  C   -0.125338
    50  C   -0.125636
    51  C   -0.161419
    52  C   -0.119239
    53  C   -0.072199
    54  C   -0.223776
    55  C   -0.068439
    56  C   -0.227495
    57  C    0.101458
    58  C   -0.218325
    59  H    0.183831
    60  C    0.107329
    61  C   -0.216001
    62  H    0.180951
    63  C    0.094249
    64  C   -0.200171
    65  H    0.184460
    66  C    0.094019
    67  C   -0.210571
    68  H    0.184884
    69  C   -0.228681
    70  C   -0.186072
    71  H    0.178740
    72  C   -0.226558
    73  C   -0.185876
    74  H    0.180965
    75  C   -0.188518
    76  H    0.181729
    77  H    0.179396
    78  C   -0.188765
    79  H    0.183123
    80  H    0.180932
    81  H    0.181835
    82  H    0.183095
    83  C   -0.204490
    84  C   -0.206052
    85  C   -0.175148
    86  H    0.183826
    87  C   -0.183810
    88  H    0.236781
    89  C   -0.184629
    90  H    0.184737
    91  H    0.187181
    92  H    0.186670
    93  C   -0.197823
    94  C   -0.164588
    95  C   -0.159630
    96  H    0.181556
    97  C   -0.188413
    98  H    0.217739
    99  C   -0.180291
   100  H    0.176496
   101  H    0.178225
   102  H    0.179116
   103  C   -0.201694
   104  C   -0.244102
   105  C   -0.171970
   106  H    0.189555
   107  C   -0.172857
   108  H    0.228014
   109  C   -0.182476
   110  H    0.189089
   111  H    0.192762
   112  H    0.190756
   113  C   -0.190052
   114  C   -0.172414
   115  C   -0.168597
   116  H    0.183972
   117  C   -0.175883
   118  H    0.221591
   119  C   -0.175786
   120  H    0.179228
   121  H    0.176571
   122  H    0.179549
 Sum of Mulliken charges =   0.00000
 Mulliken charges with hydrogens summed into heavy atoms:
               1
     2  C    0.020063
     3  C    0.380679
     4  O   -0.528538
     5  C    0.060395
    10  N    0.030179
    11  N    0.013449
    12  C    0.208618
    15  C    0.231626
    18  C    0.016358
    19  C    0.053772
    20  C    0.002302
    21  C    0.010338
    22  C    0.010076
    23  C   -0.017828
    24  C    0.003937
    25  C    0.003359
    26  C   -0.011753
    44  Ru  -0.973594
    45  P    0.600789
    46  P    0.615695
    47  C   -0.135879
    48  C   -0.144670
    49  C   -0.125338
    50  C   -0.125636
    51  C   -0.161419
    52  C   -0.119239
    53  C   -0.072199
    54  C   -0.039945
    55  C   -0.068439
    56  C   -0.046544
    57  C    0.101458
    58  C   -0.033865
    60  C    0.107329
    61  C   -0.031117
    63  C    0.094249
    64  C   -0.021431
    66  C    0.094019
    67  C   -0.029607
    69  C   -0.046952
    70  C   -0.006677
    72  C   -0.043434
    73  C   -0.004943
    75  C   -0.006683
    78  C   -0.005670
    83  C   -0.020664
    84  C    0.030730
    85  C    0.009589
    87  C    0.003371
    89  C    0.002041
    93  C   -0.016267
    94  C    0.053150
    95  C    0.016866
    97  C   -0.010188
    99  C   -0.001175
   103  C   -0.012139
   104  C   -0.016088
   105  C    0.017119
   107  C    0.019905
   109  C    0.008281
   113  C   -0.006080
   114  C    0.049177
   115  C    0.010631
   117  C    0.000689
   119  C    0.003763
 APT charges:
               1
     1  H   -0.043860
     2  C   -0.252428
     3  C    2.032397
     4  O   -1.359360
     5  C   -0.258437
     6  H    0.020419
     7  H    0.019852
     8  H   -0.752828
     9  H   -0.299184
    10  N   -0.457834
    11  N   -0.533438
    12  C    0.375974
    13  H    0.168848
    14  H    0.237725
    15  C    0.406598
    16  H    0.189851
    17  H    0.215155
    18  C    0.001561
    19  C   -0.043491
    20  C   -0.048860
    21  C    0.009407
    22  C   -0.110688
    23  C   -0.044938
    24  C   -0.036484
    25  C   -0.021564
    26  C   -0.052193
    27  H    0.116279
    28  H    0.040527
    29  H    0.024265
    30  H    0.016344
    31  H    0.061263
    32  H   -0.016954
    33  H   -0.033502
    34  H   -0.004124
    35  H   -0.025144
    36  H    0.067462
    37  H   -0.023240
    38  H    0.080959
    39  H   -0.012605
    40  H   -0.010944
    41  H   -0.007329
    42  H   -0.011901
    43  H   -0.017129
    44  Ru  -1.262076
    45  P    2.282234
    46  P    2.190505
    47  C   -0.433758
    48  C   -0.440835
    49  C   -0.382425
    50  C   -0.345680
    51  C   -0.485898
    52  C   -0.351425
    53  C    0.032804
    54  C   -0.153374
    55  C    0.025306
    56  C   -0.159732
    57  C   -0.028417
    58  C    0.027726
    59  H    0.065149
    60  C   -0.040070
    61  C    0.017830
    62  H    0.071972
    63  C   -0.033058
    64  C   -0.062555
    65  H    0.013222
    66  C   -0.024072
    67  C   -0.078662
    68  H    0.011417
    69  C   -0.001751
    70  C   -0.030930
    71  H    0.068169
    72  C    0.002075
    73  C   -0.034098
    74  H    0.075377
    75  C   -0.043222
    76  H    0.018805
    77  H    0.015104
    78  C   -0.048758
    79  H    0.018836
    80  H    0.015545
    81  H    0.013643
    82  H    0.015451
    83  C   -0.081792
    84  C   -0.106214
    85  C   -0.055188
    86  H    0.081609
    87  C   -0.047349
    88  H    0.130187
    89  C   -0.020808
    90  H    0.009815
    91  H    0.028371
    92  H    0.016373
    93  C   -0.062869
    94  C   -0.115625
    95  C   -0.056624
    96  H    0.060868
    97  C   -0.014590
    98  H    0.148156
    99  C   -0.006327
   100  H    0.018682
   101  H    0.013321
   102  H    0.014800
   103  C   -0.111384
   104  C   -0.130435
   105  C   -0.012121
   106  H    0.069495
   107  C   -0.028045
   108  H    0.096600
   109  C   -0.048960
   110  H    0.019518
   111  H    0.022132
   112  H    0.024218
   113  C   -0.042289
   114  C   -0.118223
   115  C   -0.044761
   116  H    0.052505
   117  C   -0.025511
   118  H    0.126551
   119  C   -0.007540
   120  H    0.010939
   121  H    0.026016
   122  H    0.019669
 Sum of APT charges =  -0.00002
 APT charges with hydrogens summed into heavy atoms:
               1
     2  C   -0.256016
     3  C    2.032397
     4  O   -1.359360
     5  C   -0.258437
    10  N   -0.051261
    11  N   -0.128432
    12  C    0.375974
    15  C    0.406598
    18  C   -0.053020
    19  C   -0.024413
    20  C    0.008551
    21  C   -0.026951
    22  C    0.005592
    23  C    0.016325
    24  C   -0.012219
    25  C   -0.005220
    26  C   -0.011666
    44  Ru  -2.314087
    45  P    2.282234
    46  P    2.190505
    47  C   -0.433758
    48  C   -0.440835
    49  C   -0.382425
    50  C   -0.345680
    51  C   -0.485898
    52  C   -0.351425
    53  C    0.032804
    54  C   -0.088224
    55  C    0.025306
    56  C   -0.087760
    57  C   -0.028417
    58  C    0.040948
    60  C   -0.040070
    61  C    0.029248
    63  C   -0.033058
    64  C    0.005614
    66  C   -0.024072
    67  C   -0.003285
    69  C    0.017053
    70  C   -0.015827
    72  C    0.020911
    73  C   -0.018553
    75  C   -0.029579
    78  C   -0.033308
    83  C   -0.000183
    84  C    0.023973
    85  C   -0.045373
    87  C   -0.018978
    89  C   -0.004435
    93  C   -0.002001
    94  C    0.032531
    95  C   -0.037942
    97  C   -0.001269
    99  C    0.008474
   103  C   -0.041889
   104  C   -0.033835
   105  C    0.007398
   107  C   -0.005913
   109  C   -0.024742
   113  C    0.010216
   114  C    0.008328
   115  C   -0.033822
   117  C    0.000505
   119  C    0.012129
 Electronic spatial extent (au):  <R**2>=          37832.6005
 Charge=              0.0000 electrons
 Dipole moment (field-independent basis, Debye):
    X=             -0.8091    Y=             -1.8227    Z=              3.4009  Tot=              3.9424
 Quadrupole moment (field-independent basis, Debye-Ang):
   XX=           -365.0837   YY=           -373.7981   ZZ=           -368.8792
   XY=              5.9075   XZ=            -15.5305   YZ=              0.8140
 Traceless Quadrupole moment (field-independent basis, Debye-Ang):
   XX=              4.1699   YY=             -4.5444   ZZ=              0.3744
   XY=              5.9075   XZ=            -15.5305   YZ=              0.8140
 Octapole moment (field-independent basis, Debye-Ang**2):
  XXX=           -105.2500  YYY=              4.4629  ZZZ=             57.9460  XYY=            -23.4387
  XXY=             16.7688  XXZ=             99.3293  XZZ=            -17.3398  YZZ=              3.8285
  YYZ=            -22.4114  XYZ=             39.3252
 Hexadecapole moment (field-independent basis, Debye-Ang**3):
 XXXX=         -23258.9949 YYYY=         -14303.8267 ZZZZ=         -11041.1052 XXXY=            478.4100
 XXXZ=             93.1670 YYYX=           -201.3249 YYYZ=           -202.1699 ZZZX=           -129.7142
 ZZZY=             70.6893 XXYY=          -6194.9834 XXZZ=          -5816.3762 YYZZ=          -4196.5013
 XXYZ=            160.8401 YYXZ=           -280.8852 ZZXY=            -18.2162
 N-N= 1.164550178949D+04 E-N=-3.075654151372D+04  KE= 3.128622490400D+03
  Exact polarizability:1036.135  21.812 912.708  31.829  -0.971 987.671
 Approx polarizability: 824.173   8.717 760.742  25.235 -12.687 856.867
   1 Symmetry operations used in ECPInt.
 ECPInt:  NShTT=   73920 NPrTT=  460710 LenC2=   56403 LenP2D=  174374.
 LDataN:  DoStor=T MaxTD1= 8 Len=  415
 D2PCM: PCM CHGder 2nd derivatives, FixD1E=F FixD2E=F DoIter=F DoCFld=F I1PDM=0
 Calling FoFJK, ICntrl=    100127 FMM=F ISym2X=0 I1Cent= 0 IOpClX= 0 NMat=1 NMatS=1 NMatT=0.
 Defaulting to unpruned grid for atomic number  44.
 Defaulting to unpruned grid for atomic number  44.
 Defaulting to unpruned grid for atomic number  44.
 Defaulting to unpruned grid for atomic number  44.
 Defaulting to unpruned grid for atomic number  44.
 Defaulting to unpruned grid for atomic number  44.
 Defaulting to unpruned grid for atomic number  44.
 Defaulting to unpruned grid for atomic number  44.
 Defaulting to unpruned grid for atomic number  44.
 Defaulting to unpruned grid for atomic number  44.
 Defaulting to unpruned grid for atomic number  44.
 Defaulting to unpruned grid for atomic number  44.
 Defaulting to unpruned grid for atomic number  44.
 Defaulting to unpruned grid for atomic number  44.
 Full mass-weighted force constant matrix:
 Low frequencies --- -283.6506  -11.4907   -7.6407   -0.0018   -0.0010   -0.0008
 Low frequencies ---    2.4998   12.5486   25.9043
 ******    1 imaginary frequencies (negative Signs) ****** 
 Diagonal vibrational polarizability:
      680.3223784     170.4608296     598.7264213
 Harmonic frequencies (cm**-1), IR intensities (KM/Mole), Raman scattering
 activities (A**4/AMU), depolarization ratios for plane and unpolarized
 incident light, reduced masses (AMU), force constants (mDyne/A),
 and normal coordinates:
                           1         2         3         4         5
                           A         A         A         A         A
       Frequencies ---  -283.6502   12.5178   25.7180   36.4689   37.3805
    Reduced masses ---     3.8584    5.5190    4.8088    5.0034    4.8612
   Force constants ---     0.1829    0.0005    0.0019    0.0039    0.0040
    IR Intensities ---  1907.5965    0.0148    0.1257    0.5852    0.1143
 Coord Atom Element:
   1     1     1         -0.17419  -0.10603   0.02776  -0.00352  -0.05569
   2     1     1          0.08861  -0.00204   0.09176  -0.06880  -0.05740
   3     1     1          0.15494   0.02906  -0.01980  -0.01687   0.02039
   1     2     6         -0.00028  -0.08700   0.01514  -0.00095  -0.04040
   2     2     6          0.01301  -0.00964   0.07569  -0.06102  -0.00825
   3     2     6          0.04424   0.01698  -0.00949  -0.01939   0.00510
   1     3     6          0.26373  -0.05891   0.00066   0.00962  -0.03383
   2     3     6          0.06257   0.00557   0.05150  -0.02153  -0.02080
   3     3     6          0.30847   0.03455  -0.01195  -0.02788   0.01450
   1     4     8          0.01967  -0.04864   0.00609   0.03449  -0.04783
   2     4     8          0.04469   0.00969   0.05384  -0.01240  -0.02731
   3     4     8          0.05543   0.03931   0.01235  -0.04752   0.02671
   1     5     6          0.08181  -0.05227  -0.00933  -0.01396   0.00459
   2     5     6          0.00528   0.01534   0.04240   0.01083  -0.03394
   3     5     6          0.08363   0.05901  -0.04152  -0.00350   0.04097
   1     6     1          0.00362  -0.09766   0.01589  -0.01769   0.00699
   2     6     1         -0.01656  -0.01586   0.07294  -0.06421   0.01596
   3     6     1         -0.07667   0.01068  -0.02290  -0.00002   0.02069
   1     7     1          0.01794  -0.07966   0.01568   0.01140  -0.07605
   2     7     1         -0.03519  -0.02208   0.08215  -0.07877   0.02157
   3     7     1         -0.08111   0.00042   0.01688  -0.03488  -0.02885
   1     8     1         -0.69593  -0.02982   0.00016   0.01643   0.01849
   2     8     1         -0.00518  -0.00081   0.01417  -0.02668  -0.00415
   3     8     1         -0.28864   0.00271   0.00387  -0.03246  -0.02133
   1     9     1          0.07761   0.01785   0.00147  -0.00815  -0.01207
   2     9     1         -0.07762  -0.01468  -0.02594  -0.03026  -0.01810
   3     9     1         -0.20654  -0.01009   0.01466  -0.02453  -0.01762
   1    10     7         -0.00789   0.01606  -0.00415   0.03721   0.00180
   2    10     7         -0.00745   0.01437  -0.00227  -0.01644  -0.00697
[...]
 0.00000745,-0.00011827,0.00011371,0.00004129,0.00004501,0.00000199,-0.
 00000338,0.00000402,0.00002075,0.00001547,0.00003680,-0.00001967,0.000
 02039,-0.00002538,0.00001612,-0.00000728,0.00000533,0.00006542,0.00007
 564,-0.00001079,0.00000791,-0.00003536,0.00003507,-0.00002142,-0.00002
 412,0.00002262,-0.00000394,-0.00000154,-0.00001838,-0.00001701,-0.0000
 0447,-0.00002071,-0.00001683,-0.00000334,-0.00001241,0.00000409,0.0000
 6071,0.00006323,-0.00001407,-0.00002636,0.00003337,0.00002610,-0.00000
 291,0.00001482,0.00000295,0.00000036,0.00001934,-0.00000255,-0.0000027
 5,0.00000035,-0.00000081,-0.00000010,0.00000121,-0.00000993,0.00001581
 ,-0.00004644,-0.00002324,-0.00000823,0.00001436,0.00000428,0.00000179,
 0.00000309,-0.00001525,-0.00000494,-0.00000381,-0.00000142,-0.00000020
 ,-0.00000595,-0.00000624,-0.00000183,0.00000267,-0.00000119,-0.0000017
 2,0.00000434,-0.00000528,-0.00000110,-0.00000085,0.00001442,-0.0000041
 3,0.00001278,-0.00000522,-0.00000435,0.00001040,0.00000118,-0.00000582
 ,0.00000110,-0.00000158,0.00000297,-0.00000105,-0.00000297,-0.00000062
 ,-0.00000245,0.00000166,0.00000555,-0.00001716,-0.00000029,-0.00000572
 ,0.00000344,-0.00000009,-0.00000329,0.00000188,0.00000230,-0.00000265,
 0.00000276,0.00000022,-0.00000198,0.00000146,0.00000008,-0.00000831,-0
 .00001902,-0.00000803,-0.00001216,0.00000137,-0.00000208,-0.00000299,-
 0.00000133,0.00000174,0.00000104,-0.00000036,-0.00000089,0.00000056,0.
 00000849,0.00000377,0.00000848,0.00001006,-0.00000342,-0.00000335,0.00
 000223,-0.00000362,-0.00000048,-0.00000110,-0.00000038,-0.00000084,-0.
 00000341,-0.00000254,-0.00000134,-0.00000132,0.00002531,0.00001401,0.0
 0000323,0.00008443,0.00012528,-0.00005186,-0.00000935,-0.00002169,-0.0
 0000587,-0.00004296,-0.00004724,0.00001329,0.00000676,-0.00002554,-0.0
 0003676,-0.00000705,-0.00000355,0.00000836,0.00001364,0.00000129,-0.00
 002320,0.00001019,0.00001288,-0.00000549,0.00001414,0.00000133,-0.0000
 2079,0.00000680,0.00000239,-0.00001083,0.00030823,-0.00021013,0.000488
 10,-0.00516295,0.00417859,-0.01507526,-0.00156802,0.00134225,0.0015066
 6,0.00013631,0.00010764,-0.00015169,-0.06469455,0.02594346,-0.32854441
 ,0.00060870,0.00040323,0.00061107,-0.00083331,-0.00185295,-0.00595550,
 -0.00010279,-0.00007847,-0.00044913,0.07030590,-0.02670056,0.34781418,
 -0.00001244,0.00001304,-0.00000787,-0.00001659,-0.00003705,-0.00000891
 ,0.00008015,-0.00001836,0.00003033,-0.00003898,0.00004392,-0.00000493,
 -0.00000789,-0.00000149,-0.00000631,0.00001434,0.00002691,0.00001457,-
 0.00000089,-0.00000087,0.00000495,-0.00003322,0.00001086,-0.00000038,0
 .00000551,0.00000405,0.00001816,-0.00001688,0.00000614,-0.00000451,-0.
 00001286,-0.00000175,0.00000292,0.00000638,-0.00000101,-0.00000996,-0.
 00000028,-0.00000109,0.00000136,-0.00000107,-0.00000250,-0.00000198,0.
 00000763,-0.00000777,-0.00000100,0.00000344,0.00000060,-0.00000126,0.0
 0000452,-0.00000061,-0.00000167,-0.00000159,-0.00000004,0.00000302,-0.
 00000305,0.00000055,0.00000348,-0.00000129,0.00000231,0.00000036,-0.00
 000112,0.00000179,-0.00000085,0.00001525,0.00000214,0.00001116,0.00000
 442,-0.00000498,-0.00000023,-0.00000497,-0.00000454,-0.00000080,-0.000
 00399,-0.00000204,0.00000061,-0.00000460,0.00000442,-0.00000893,0.0000
 1587,0.00000053,-0.00000273,0.00000160,-0.00000005,0.00000501,-0.00000
 318,-0.00000060,0.00000117,-0.00000219,-0.00000016,0.00000076,-0.00000
 046,0.00000171,-0.00000042,0.00000050,0.00000066,-0.00000027,-0.000001
 92,0.00000114,0.00000048,0.00000028,-0.00000047,-0.00000032,0.00000047
 ,0.00000026,-0.00000095,0.00000006,-0.00000063,-0.00000330,-0.00000157
 ,0.00000176,0.00000100,0.00000246,-0.00000087,-0.00000036,-0.00000180,
 0.00000104,0.00000050,0.00000040,-0.00000063,0.00000004,0.00000049,-0.
 00000045,-0.00000015,-0.00000013,-0.00000088,0.00000034,-0.00000099,0.
 00000092,0.00000111,0.00000054,0.00009370,0.00003708,-0.00001750,-0.00
 005791,-0.00001163,-0.00067029,-0.00041403,0.00005378,0.00000583,0.000
 00670,0.00000348,0.00000140,0.00000844,-0.00000185,0.00004332,0.000032
 90,-0.00001981,0.00003494,0.00009952,0.00013386,-0.00097089,-0.0002763
 6,-0.00009050,0.00000769,0.00001321,-0.00012806,0.00000923,0.00001482,
 -0.00002280,-0.00002365,0.00002153,0.00005445,-0.00000105,0.00001142,-
 0.00000269,-0.00003137,-0.00000525,0.00000357,-0.00000071,-0.00000182,
 0.00000027,-0.00000442,-0.00004466,0.00001061,-0.00000219,0.00000053,0
 .00000086,0.00000378,0.00000025,0.00000863,-0.00000168,-0.00000002,-0.
 00000862,-0.00000015,-0.00000048,0.00000083,0.00001783,-0.00002757,-0.
 00001690,0.00002754,-0.00000337,-0.00000969,0.00000453,0.00000320,-0.0
 0000730,0.00000596,-0.00000078,-0.00000432,0.00000054,0.00000149,0.000
 00178,-0.00000186,0.00000066,0.00000068,0.00009732,0.00000781,0.000050
 26,0.00003694,0.00007387,-0.00006001,-0.00000091,0.00000265,0.00000371
 ,-0.00000071,0.00000029,-0.00000055,-0.00000021,0.00000051,0.00000242,
 -0.00000413,-0.00000254,0.00000189,-0.00000189,0.00009406,0.00002472,-
 0.00000267,0.00000292,-0.00000889,-0.00000460,-0.00000570,0.00000147,0
 .00000191,-0.00000012,-0.00000018,0.00000062,0.00000013,0.00000149,0.0
 0000110,0.00000036,-0.00000043,-0.00001066,-0.00000293,0.00000454,0.00
 000115,0.00000020,0.00000057,-0.00000509,0.00000018,-0.00000345,-0.000
 00142,0.00000099,-0.00000046,0.00000001,0.00000180,-0.00000083,0.00000
 071,-0.00000052,0.00000050,0.00000297,0.00000094,0.00000154,0.00000037
 ,-0.00000525,0.00000532,-0.00000008,0.00000188,-0.00000152,0.00000031,
 0.00000135,-0.00000074,-0.00000090,0.00000015,-0.00000089,-0.00000003,
 0.00000113,-0.00000076,-0.00000007,0.00000297,0.00000461,0.00000597,0.
 00000538,-0.00000095,-0.00000039,0.00000057,0.00000069,-0.00000185,-0.
 00000280,0.00000060,0.00000072,-0.00000030,-0.00000113,-0.00000156,-0.
 00000228,-0.00000277,0.00000128,0.00000145,0.00000036,0.00000123,0.000
 00028,0.00000027,0.00000038,0.00000055,0.00000155,0.00000098,0.0000004
 1,0.00000066,0.00001112,0.00001720,0.00001341,-0.00001663,-0.00005530,
 0.00003947,0.00000846,0.00000169,0.00000137,0.00001565,0.00002245,-0.0
 0003961,-0.00000785,0.00001210,0.00000941,0.00000327,-0.00000343,0.000
 00053,-0.00000399,0.00000222,0.00000411,-0.00000103,-0.00000496,0.0000
 0316,-0.00000794,0.00000112,0.00000404,-0.00000234,-0.00000045,0.00000
 175,0.00549324,0.00258263,-0.00285004,0.00516220,0.00468689,-0.0029263
 2,0.00517351,-0.00631815,-0.00556616,0.00004350,-0.00033108,-0.0002630
 0,0.00098805,0.01026285,0.01045364,-0.00009167,0.00034676,0.00055635,-
 0.05636144,0.05459853,0.03569792,-0.00296581,-0.00168093,0.00104958,-0
 .00316011,-0.00198254,0.00057202,0.04717582,0.00002244,-0.00002124,0.0
 0001742,0.00002724,0.00006161,0.00001972,-0.00018474,0.00006481,-0.000
 10851,0.00009218,-0.00011572,0.00002638,0.00002492,0.00000491,0.000024
 05,-0.00004422,-0.00002149,-0.00005101,0.00000181,-0.00000022,-0.00000
 797,0.00009237,-0.00004699,-0.00000076,-0.00001417,-0.00000113,-0.0000
 4630,0.00004074,-0.00002571,0.00001694,0.00002503,0.00000022,-0.000008
 08,-0.00001700,0.00000331,0.00002454,0.00000320,0.00000132,-0.00000271
 ,0.00000124,0.00000926,0.00000471,-0.00001721,0.00001740,0.00000227,-0
 .00000637,-0.00000048,0.00000835,-0.00000744,-0.00000012,0.00000277,0.
 00000411,0.00000018,-0.00000744,0.00000705,-0.00000161,-0.00000826,0.0
 0000294,-0.00000443,-0.00000083,0.00000269,-0.00000320,0.00000178,-0.0
 0003167,-0.00000840,-0.00003875,-0.00000416,0.00000856,0.00000084,0.00
 000798,0.00000904,-0.00000238,0.00000761,0.00000053,-0.00000051,0.0000
 2089,-0.00001589,0.00001659,-0.00005628,-0.00000622,0.00004267,-0.0000
 0391,0.00000127,-0.00000565,0.00000705,0.00000313,-0.00000086,0.000006
 14,0.00000103,-0.00000032,0.00000297,-0.00000405,0.00000129,-0.0000014
 4,-0.00000193,0.00000056,0.00000487,-0.00000275,-0.00000115,-0.0000007
 1,0.00000131,0.00000039,-0.00000128,-0.00000137,0.00000211,-0.00000069
 ,0.00000210,0.00000880,0.00000388,-0.00000431,-0.00000270,-0.00000597,
 0.00000360,0.00000077,0.00000427,-0.00000303,-0.00000202,-0.00000156,0
 .00000084,0.00000101,-0.00000134,0.00000096,-0.00000004,0.00000018,0.0
 0000160,-0.00000063,0.00000247,-0.00000253,-0.00000250,0.00003238,-0.0
 0021734,-0.00008398,0.00007987,0.00012691,-0.00002311,-0.00040620,0.00
 027462,0.00038300,-0.00002170,-0.00001440,0.00000091,-0.00001123,-0.00
 001059,0.00001319,-0.00003202,0.00000202,0.00000750,-0.00000643,-0.000
 06838,-0.00001496,-0.00016577,-0.00031239,0.00086516,0.00006227,-0.000
 06212,-0.00013696,0.00001566,0.00000286,0.00001423,-0.00004498,0.00003
 705,0.00000529,-0.00000572,0.00001638,-0.00001250,-0.00007759,-0.00001
 785,0.00002244,0.00002939,-0.00000295,0.00002156,0.00000299,-0.0000266
 7,-0.00001663,0.00000413,0.00000123,0.00000066,0.00001860,0.00000672,0
 .00001053,-0.00000637,0.00000664,-0.00001988,0.00000758,-0.00000221,0.
 00000055,0.00002977,-0.00003905,-0.00004858,0.00002284,-0.00003278,0.0
 0001880,-0.00000009,0.00000088,0.00000699,-0.00000304,-0.00000112,-0.0
 0001078,-0.00001068,-0.00000326,-0.00000868,-0.00000959,-0.00000212,-0
 .00000702,0.00014957,-0.00001552,0.00004829,0.00001006,0.00004835,-0.0
 0007163,0.00001003,0.00000428,0.00001423,0.00000182,0.00000128,0.00000
 912,-0.00000190,0.00000003,0.00000045,0.00000291,0.00000086,-0.0000003
 4,-0.00000045,0.00013533,0.00001718,-0.00000866,-0.00000262,0.00000942
 ,-0.00000467,0.00000032,0.00000290,-0.00000776,-0.00000223,-0.00000151
 ,-0.00000105,-0.00000021,-0.00000355,-0.00000375,-0.00000144,0.0000015
 8,-0.00002252,-0.00000004,0.00000905,-0.00000320,-0.00000092,-0.000000
 80,0.00001081,-0.00000213,0.00000894,0.00000228,0.00000025,0.00000151,
 -0.00000045,-0.00000479,0.00000130,-0.00000188,0.00000125,-0.00000111,
 -0.00000657,-0.00000273,-0.00000307,0.00000197,0.00001237,-0.00001317,
 0.00000012,-0.00000412,0.00000340,-0.00000055,-0.00000341,0.00000149,0
 .00000203,0.00000010,0.00000156,0.00000014,-0.00000262,0.00000166,-0.0
 0000157,-0.00000797,-0.00001397,-0.00001008,-0.00000941,0.00000042,-0.
 00000066,-0.00000109,-0.00000028,0.00000265,0.00000231,-0.00000074,-0.
 00000224,0.00000023,0.00000499,0.00000383,0.00000611,0.00000824,-0.000
 00238,-0.00000234,-0.00000042,-0.00000317,-0.00000085,-0.00000069,-0.0
 0000053,-0.00000096,-0.00000308,-0.00000212,-0.00000131,-0.00000126,0.
 00002773,0.00002224,0.00000539,0.00002296,0.00002843,-0.00000674,-0.00
 000262,-0.00001663,-0.00000057,-0.00002894,-0.00002024,-0.00000261,0.0
 0000404,-0.00000149,-0.00001044,-0.00000250,-0.00000028,0.00000565,0.0
 0000643,0.00000065,-0.00001379,0.00000579,0.00000496,-0.00000140,0.000
 00320,0.00000019,-0.00000869,0.00000273,0.00000133,-0.00000623,0.00249
 406,0.00232034,0.00044663,0.00495257,-0.00216325,0.00249154,-0.0002792
 3,0.00578712,0.00389112,-0.00002264,0.00015628,0.00019871,0.00429959,-
 0.01386690,-0.01902950,0.00004750,-0.00054996,-0.00095911,0.05438889,-
 0.21611322,-0.13616845,-0.00183654,-0.00010595,0.00000774,-0.00186525,
 0.00016707,0.00053450,-0.06185000,0.22463668,0.00000227,-0.00000219,0.
 00000559,0.00000611,0.00001246,0.00000100,-0.00003909,0.00001105,-0.00
 002230,0.00001995,-0.00002131,0.00000693,0.00000789,0.00000367,0.00000
 240,-0.00000655,0.00000125,0.00000044,0.00000148,-0.00000134,-0.000001
 04,0.00000556,0.00003429,0.00002888,0.00000219,0.00000044,-0.00000447,
 0.00003775,-0.00002194,0.00001712,0.00001698,-0.00000280,-0.00000628,-
 0.00000872,0.00000119,0.00001715,0.00000241,0.00000147,-0.00000080,0.0
 0000193,-0.00000422,-0.00000379,-0.00001126,0.00001068,0.00000158,-0.0
 0000477,0.00000002,0.00000023,-0.00000922,0.00000465,0.00000143,0.0000
 0299,0.00000010,-0.00000564,0.00000359,-0.00000034,-0.00000416,0.00000
 179,-0.00000305,-0.00000141,0.00000190,-0.00000199,0.00000104,-0.00001
 336,-0.00000464,-0.00000938,-0.00000144,0.00000222,0.00000073,0.000001
 07,0.00000228,0.00000045,0.00000276,-0.00000018,0.00000021,0.00000651,
 -0.00000364,0.00000682,-0.00001121,0.00000789,-0.00000216,-0.00000374,
 -0.00000183,-0.00000368,0.00000292,0.00000092,-0.00000074,0.00000198,0
 .00000004,-0.00000001,0.00000111,-0.00000111,0.00000065,-0.00000074,-0
 .00000097,0.00000041,0.00000325,-0.00000190,-0.00000070,-0.00000022,0.
 00000056,0.00000028,-0.00000062,-0.00000071,0.00000110,-0.00000018,0.0
 0000121,0.00000450,0.00000213,-0.00000235,-0.00000159,-0.00000185,0.00
 000103,-0.00000028,0.00000244,-0.00000142,-0.00000014,-0.00000070,0.00
 000064,0.00000024,-0.00000071,0.00000106,0.00000032,-0.00000014,0.0000
 0108,-0.00000057,0.00000153,-0.00000158,-0.00000137,-0.00002628,-0.000
 14054,-0.00003993,0.00003535,0.00006771,-0.00002449,0.00005653,0.00039
 146,0.00017988,-0.00001091,-0.00000621,0.00000035,-0.00000551,-0.00000
 777,0.00000654,-0.00002814,-0.00001320,0.00000236,0.00000847,-0.000081
 86,-0.00004866,-0.00025461,0.00076660,-0.00045152,0.00003486,-0.000061
 77,0.00001099,0.00000480,0.00001052,-0.00000929,-0.00000373,0.00000721
 ,-0.00000446,0.00001225,-0.00000211,-0.00003015,-0.00001741,-0.0000111
 0,0.00002387,-0.00000979,0.00002614,-0.00000481,-0.00000434,-0.0000018
 0,0.00000328,0.00000128,-0.00000110,0.00000222,0.00001186,0.00000564,0
 .00000638,-0.00000084,0.00000295,-0.00000168,0.00000471,0.00000266,0.0
 0000423,0.00000120,0.00000086,-0.00001632,0.00000953,-0.00002142,-0.00
 000004,0.00000004,0.00000086,0.00000270,-0.00000653,0.00000060,-0.0000
 0515,-0.00000568,-0.00000226,-0.00000896,-0.00000494,-0.00000071,-0.00
 000508,0.00001991,-0.00002683,0.00000970,-0.00001002,-0.00000492,-0.00
 000643,0.00002239,0.00000267,0.00001345,0.00000264,0.00000099,0.000008
 70,-0.00000260,-0.00000092,-0.00000108,0.00000200,0.00000094,0.0000001
 3,-0.00001771,0.00004249,-0.00001297,-0.00000011,0.00000122,0.00000071
 ,-0.00000801,0.00000341,-0.00000470,-0.00000782,-0.00000218,-0.0000005
 2,-0.00000098,-0.00000028,-0.00000355,-0.00000326,-0.00000131,0.000001
 53,-0.00000934,0.00000003,0.00000853,-0.00000304,-0.00000093,-0.000000
 73,0.00000647,-0.00000139,0.00000537,-0.00000035,-0.00000243,0.0000012
 2,0.00000040,-0.00000227,0.00000067,-0.00000097,0.00000124,-0.00000049
 ,-0.00000188,-0.00000063,-0.00000129,-0.00000053,0.00000224,-0.0000047
 2,-0.00000005,-0.00000231,0.00000141,-0.00000035,-0.00000180,0.0000009
 4,0.00000082,-0.00000007,0.00000116,0.00000014,-0.00000104,0.00000095,
 0.00000034,-0.00000358,-0.00000785,-0.00000577,-0.00000627,0.00000157,
 0.00000020,-0.00000147,-0.00000121,0.00000183,0.00000183,-0.00000060,-
 0.00000024,0.00000043,0.00000329,0.00000148,0.00000347,0.00000416,-0.0
 0000150,-0.00000187,0.00000106,-0.00000176,-0.00000024,-0.00000039,-0.
 00000028,-0.00000043,-0.00000200,-0.00000135,-0.00000078,-0.00000089,0
 .00004373,0.00001106,0.00000448,0.00001335,0.00003785,0.00001040,-0.00
 001647,-0.00002828,0.00000521,-0.00006339,-0.00002816,0.00000168,0.000
 01509,0.00000580,-0.00002067,-0.00000207,-0.00000156,0.00000060,0.0000
 0477,-0.00000955,-0.00002312,0.00000610,0.00000671,-0.00000173,0.00000
 476,-0.00000086,-0.00000819,0.00000389,-0.00000006,-0.00000754,-0.0031
 1873,0.00126445,-0.00465000,-0.00221610,0.00187393,0.00032037,0.008053
 96,-0.02479657,-0.01341627,0.00033440,-0.00125170,-0.00089343,-0.00296
 804,0.00970340,0.01087015,-0.00011603,0.00043377,0.00040864,0.03533263
 ,-0.13641482,-0.17533904,0.00071336,0.00068414,0.00090822,0.00097019,-
 0.00012248,0.00064947,-0.03680420,0.14768386,0.18154438\\0.00000109,0.
 00000160,-0.00000105,0.00000202,0.00000022,-0.00000054,0.00000131,-0.0
 0000312,-0.00000317,0.,0.00000709,0.00000543,0.00000015,0.00000115,-0.
 00000250,-0.00000183,-0.00000133,-0.00000052,0.00000135,-0.00000134,0.
 00000074,-0.00000182,0.00000011,0.00000090,0.00000037,0.00000095,-0.00
 000031,0.00000035,0.00000365,-0.00000067,-0.00000094,0.00000153,-0.000
 00178,0.00000108,0.00000172,-0.00000075,0.00000162,0.00000012,-0.00000
 136,0.00000350,0.00000005,-0.00000445,-0.00000016,0.00000313,-0.000002
 18,-0.00000011,0.00000003,-0.00000087,-0.00000024,0.00000364,0.0000003
 1,0.00000166,0.00000309,-0.00000149,0.00000230,0.00000137,-0.00000146,
 0.00000074,0.00000365,-0.00000092,-0.00000067,0.00000425,-0.00000102,-
 0.00000113,0.00000250,-0.00000071,-0.00000109,0.00000299,0.00000010,-0
 .00000133,0.00000277,-0.00000037,-0.00000117,0.00000402,-0.00000086,-0
 .00000200,0.00000323,0.00000050,-0.00000139,0.00000165,-0.00000083,-0.
 00000238,0.00000211,0.00000002,-0.00000213,0.00000403,-0.00000054,-0.0
 0000043,0.00000409,-0.00000136,0.00000013,0.00000275,-0.00000108,0.000
 00280,0.00000264,-0.00000174,0.00000245,0.00000331,-0.00000219,0.00000
 233,0.00000302,-0.00000175,0.00000209,0.00000165,-0.00000116,0.0000008
 5,0.00000163,-0.00000108,0.00000183,0.00000287,-0.00000146,0.00000089,
 0.00000304,-0.00000165,0.00000078,0.00000436,-0.00000151,-0.00000045,0
 .00000347,-0.00000099,0.00000010,0.00000302,-0.00000086,-0.00000036,0.
 00000363,-0.00000111,0.00000105,0.00000344,-0.00000153,0.00000138,0.00
 000230,0.00000028,0.00000035,0.,-0.00000118,-0.00000084,-0.00000050,-0
 .00000054,0.00000190,-0.00000037,0.00000031,0.00000196,-0.00000160,0.0
 0000030,0.00000047,-0.00000175,0.00000025,-0.00000184,0.00000096,-0.00
 000021,-0.00000071,-0.00000027,-0.00000051,-0.00000109,-0.00000232,0.0
 0000173,-0.00000051,-0.00000050,0.00000041,0.00000096,-0.00000176,0.00
 000024,0.00000045,-0.00000201,0.00000029,-0.00000088,-0.00000007,0.000
 00074,0.00000001,-0.00000299,0.00000137,0.00000010,-0.00000179,-0.0000
 0004,0.00000200,-0.00000120,-0.00000004,-0.00000064,-0.00000359,0.0000
 0102,-0.00000110,-0.00000190,0.00000046,-0.00000151,-0.00000046,0.0000
 0064,-0.00000028,-0.00000214,0.00000105,-0.00000259,-0.00000312,0.0000
 0132,0.00000066,-0.00000257,0.00000118,-0.00000189,0.00000054,0.000001
 19,0.00000008,-0.00000328,0.00000137,-0.00000125,-0.00000122,0.0000010
 3,-0.00000080,-0.00000316,0.00000123,-0.00000158,-0.00000381,0.0000021
 2,-0.00000191,-0.00000279,0.00000163,0.,-0.00000379,0.00000140,0.00000
 050,-0.00000417,0.00000113,0.00000067,-0.00000340,0.00000083,-0.000001
 68,-0.00000388,0.00000142,-0.00000069,-0.00000352,0.00000142,-0.000002
 68,-0.00000359,0.00000197,-0.00000045,-0.00000415,0.00000133,-0.000000
 77,-0.00000280,0.00000089,0.00000048,-0.00000479,0.00000145,-0.0000021
 0,-0.00000393,0.00000224,0.00000016,-0.00000443,0.00000146,0.00000302,
 -0.00000028,-0.00000040,0.00000342,-0.00000083,-0.00000028,0.00000376,
 -0.00000154,-0.00000087,0.00000305,-0.00000156,-0.00000070,0.00000171,
 -0.00000174,-0.00000083,0.00000130,0.00000210,-0.00000101,0.00000446,0
 .00000014,-0.00000116,0.00000427,-0.00000164,-0.00000088,0.00000341,0.
 00000023,-0.00000067,0.00000448,-0.00000084,-0.00000114,0.00000235,-0.
 00000306,0.00000038,0.00000168,-0.00000030,-0.00000109,0.00000161,-0.0
 0000319,0.00000079,0.00000173,-0.00000252,0.00000024,0.00000140,-0.000
 00242,-0.00000022,0.00000046,-0.00000027,-0.00000008,0.00000223,-0.000
 00134,-0.00000003,0.00000243,-0.00000316,0.00000036,0.00000150,-0.0000
 0088,-0.00000005,0.00000208,-0.00000293,0.00000017,-0.00000234,0.,-0.0
 0000003,-0.00000214,0.00000104,0.00000154,-0.00000282,0.00000243,0.000
 00036,-0.00000301,0.00000119,0.00000135,-0.00000205,0.00000184,-0.0000
 0041,-0.00000083,0.00000155,-0.00000005,-0.00000213,0.00000282,-0.0000
 0077,-0.00000365,0.00000237,0.00000039,-0.00000188,0.00000265,0.000000
 04,-0.00000352,0.00000290,0.00000046,-0.00000233,-0.00000085,0.0000011
 3,-0.00000129,-0.00000132,-0.00000001,-0.00000280,-0.00000023,0.000000
 78,-0.00000276,-0.00000053,0.00000116,-0.00000226,-0.00000098,0.000001
 53,-0.00000136,0.00000169,0.00000199,-0.00000282,-0.00000060,0.0000009
 4,-0.00000347,-0.00000143,0.00000169,-0.00000152,-0.00000089,0.0000005
 9,-0.00000291,-0.00000156,0.00000142\\\@


 EVANS BOLDLY PUT 50 ATM. OF ETHYLENE IN A CELL WITH 25 ATM. OF OXYGEN.
 THE APPARATUS SUBSEQUENTLY BLEW UP, BUT LUCKILY NOT BEFORE HE
 OBTAINED THE SPECTRA SHOWN IN FIGURE 8.
 A.J.MERER AND R.S.MULLIKEN, CHEM.REV. 69, 645 (1969)
 Job cpu time:       2 days 23 hours 56 minutes 34.8 seconds.
 File lengths (MBytes):  RWF=  15388 Int=      0 D2E=      0 Chk=    134 Scr=      1
 Normal termination of Gaussian 09 at Fri Dec 21 00:14:10 2018.
