 Entering Gaussian System, Link 0=g09
 Input=/home/vmi38398/chem/asymmetric_hydrogenation/debug/S_binap/S_binap-TMEN_Ph/R/ts1/Cf1/S_binap-TMEN_Ph.R.ts1.Cf1.3.com
 Output=/home/vmi38398/chem/asymmetric_hydrogenation/debug/S_binap/S_binap-TMEN_Ph/R/ts1/Cf1/S_binap-TMEN_Ph.R.ts1.Cf1.3.log
 Initial command:
 /usr/local/apps/eb/gaussian/09-Intel-SSE4_2/g09/l1.exe "/lscratch/vmi38398/653470.sapelo2/Gau-189554.inp" -scrdir="/lscratch/vmi38398/653470.sapelo2/"
 Default is to use a total of  14 processors:
                               14 via shared-memory
                                1 via Linda
 Entering Link 1 = /usr/local/apps/eb/gaussian/09-Intel-SSE4_2/g09/l1.exe PID=    189555.
  
 Copyright (c) 1988,1990,1992,1993,1995,1998,2003,2009,2013,
            Gaussian, Inc.  All Rights Reserved.
  
 This is part of the Gaussian(R) 09 program.  It is based on
 the Gaussian(R) 03 system (copyright 2003, Gaussian, Inc.),
 the Gaussian(R) 98 system (copyright 1998, Gaussian, Inc.),
 the Gaussian(R) 94 system (copyright 1995, Gaussian, Inc.),
 the Gaussian 92(TM) system (copyright 1992, Gaussian, Inc.),
 the Gaussian 90(TM) system (copyright 1990, Gaussian, Inc.),
 the Gaussian 88(TM) system (copyright 1988, Gaussian, Inc.),
 the Gaussian 86(TM) system (copyright 1986, Carnegie Mellon
 University), and the Gaussian 82(TM) system (copyright 1983,
 Carnegie Mellon University). Gaussian is a federally registered
 trademark of Gaussian, Inc.
  
 This software contains proprietary and confidential information,
 including trade secrets, belonging to Gaussian, Inc.
  
 This software is provided under written license and may be
 used, copied, transmitted, or stored only in accord with that
 written license.
  
 The following legend is applicable only to US Government
 contracts under FAR:
  
                    RESTRICTED RIGHTS LEGEND
  
 Use, reproduction and disclosure by the US Government is
 subject to restrictions as set forth in subparagraphs (a)
 and (c) of the Commercial Computer Software - Restricted
 Rights clause in FAR 52.227-19.
  
 Gaussian, Inc.
 340 Quinnipiac St., Bldg. 40, Wallingford CT 06492
  
  
 ---------------------------------------------------------------
 Warning -- This program may not be used in any manner that
 competes with the business of Gaussian, Inc. or will provide
 assistance to any competitor of Gaussian, Inc.  The licensee
 of this program is prohibited from giving any competitor of
 Gaussian, Inc. access to this program.  By using this program,
 the user acknowledges that Gaussian, Inc. is engaged in the
 business of creating and licensing software in the field of
 computational chemistry and represents and warrants to the
 licensee that it is not a competitor of Gaussian, Inc. and that
 it will not use this program in any manner prohibited above.
 ---------------------------------------------------------------
  

 Cite this work as:
 Gaussian 09, Revision D.01,
 M. J. Frisch, G. W. Trucks, H. B. Schlegel, G. E. Scuseria, 
 M. A. Robb, J. R. Cheeseman, G. Scalmani, V. Barone, B. Mennucci, 
 G. A. Petersson, H. Nakatsuji, M. Caricato, X. Li, H. P. Hratchian, 
 A. F. Izmaylov, J. Bloino, G. Zheng, J. L. Sonnenberg, M. Hada, 
 M. Ehara, K. Toyota, R. Fukuda, J. Hasegawa, M. Ishida, T. Nakajima, 
 Y. Honda, O. Kitao, H. Nakai, T. Vreven, J. A. Montgomery, Jr., 
 J. E. Peralta, F. Ogliaro, M. Bearpark, J. J. Heyd, E. Brothers, 
 K. N. Kudin, V. N. Staroverov, T. Keith, R. Kobayashi, J. Normand, 
 K. Raghavachari, A. Rendell, J. C. Burant, S. S. Iyengar, J. Tomasi, 
 M. Cossi, N. Rega, J. M. Millam, M. Klene, J. E. Knox, J. B. Cross, 
 V. Bakken, C. Adamo, J. Jaramillo, R. Gomperts, R. E. Stratmann, 
 O. Yazyev, A. J. Austin, R. Cammi, C. Pomelli, J. W. Ochterski, 
 R. L. Martin, K. Morokuma, V. G. Zakrzewski, G. A. Voth, 
 P. Salvador, J. J. Dannenberg, S. Dapprich, A. D. Daniels, 
 O. Farkas, J. B. Foresman, J. V. Ortiz, J. Cioslowski, 
 and D. J. Fox, Gaussian, Inc., Wallingford CT, 2013.
 
 ******************************************
 Gaussian 09:  ES64L-G09RevD.01 24-Apr-2013
                20-Dec-2018 
 ******************************************
 %chk=S_binap-TMEN_Ph.R.ts1.Cf1.chk
 ----------------------------------------------------------------------
 #wb97xd/genecp opt=(noeigen,readfc,ts,maxcyc=1000) scrf=(pcm,solvent=2
 -propanol)
 ----------------------------------------------------------------------
 1/5=1,6=1000,10=3,11=1,14=-1,18=20,26=3,38=1/1,3;
 2/9=110,12=2,17=6,18=5,40=1/2;
 3/5=7,11=2,16=1,17=8,25=1,30=1,70=2201,71=1,72=73,74=-58/1,2,3;
 4//1;
 5/5=2,38=5,53=73/2;
 6/7=2,8=2,9=2,10=2,28=1/1;
 7//1,2,3,16;
 1/5=1,6=1000,11=1,14=-1,18=20,26=3/3(2);
 2/9=110/2;
 99//99;
 2/9=110/2;
 3/5=7,6=1,11=2,16=1,17=8,25=1,30=1,70=2205,71=1,72=73,74=-58,82=7/1,2,3;
 4/5=5,16=3,69=1/1;
 5/5=2,38=5,53=73/2;
 7//1,2,3,16;
 1/5=1,6=1000,11=1,14=-1,18=20,26=3/3(-5);
 2/9=110/2;
 6/7=2,8=2,9=2,10=2,19=2,28=1/1;
 99/9=1/99;
 --------------------------
 step 3 (attempt 2) cycle 1
 --------------------------
 Symbolic Z-matrix:
 Charge =  0 Multiplicity = 1
 H                    -2.87294  -0.5861   -4.43763 
 C                    -2.261    -0.4906   -3.52997 
 C                    -3.19081  -0.01567  -2.42467 
 O                    -3.64675   1.14257  -2.45864 
 C                    -4.01924  -1.10985  -1.77737 
 H                    -1.82708  -1.4682   -3.31734 
 H                    -1.46793   0.23305  -3.72557 
 H                    -1.80683   0.0391   -1.15091 
 H                    -0.69276   1.26252   1.84327 
 N                    -2.48036   2.36557   0.02806 
 N                    -3.02492   0.16273   1.37604 
 C                    -3.42678   2.62243   1.14706 
 H                    -2.00655   3.23696  -0.20374 
 H                    -3.0067    2.10265  -0.81481 
 C                    -4.06646   1.23608   1.52368 
 H                    -3.44333  -0.63922   0.90774 
 H                    -2.75793  -0.16828   2.29911 
 C                    -4.4819    3.6433    0.68946 
 C                    -2.65186   3.25214   2.31106 
 C                    -5.23551   0.89745   0.59202 
 C                    -4.58266   1.21477   2.9672 
 C                    -3.4968   -2.12287  -0.97077 
 C                    -5.38847  -1.10679  -2.05551 
 C                    -5.7015   -3.07375  -0.69352 
 C                    -6.22509  -2.08382  -1.52216 
 C                    -4.33393  -3.09071  -0.4212 
 H                    -2.43673  -2.11958  -0.74201 
 H                    -3.91678  -3.85422   0.22937 
 H                    -6.354    -3.82788  -0.26353 
 H                    -7.28826  -2.06382  -1.74343 
 H                    -5.79747  -0.31841  -2.68043 
 H                    -4.00167   4.6156    0.53131 
 H                    -5.26231   3.77856   1.44634 
 H                    -4.95919   3.34778  -0.24894 
 H                    -2.06377   4.10119   1.94214 
 H                    -1.96026   2.5425    2.76617 
 H                    -3.34308   3.63285   3.06887 
 H                    -4.96239   1.0003   -0.46007 
 H                    -6.09159   1.547     0.79504 
 H                    -5.55825  -0.13642   0.75881 
 H                    -3.77075   1.31516   3.69453 
 H                    -5.09305   0.26401   3.15703 
 H                    -5.30044   2.02261   3.14413 
 Ru                   -1.14234   0.68662   0.3676 
 P                     0.71312   1.60783  -0.53802 
 P                     0.00345  -1.15912   0.97611 
 C                     0.34395   2.95063  -1.77192 
 C                     2.        2.43571   0.50376 
 C                     1.76072   0.41076  -1.49372 
 C                    -0.89062  -1.96753   2.38719 
 C                     0.32566  -2.60124  -0.13076 
 C                     1.74687  -0.86732   1.55861 
 C                     2.52112  -0.55005  -0.84128 
 C                     1.62383   0.35377  -2.90641 
 C                     2.7393   -0.5303    0.6456 
 C                     2.05018  -0.86547   2.94501 
 C                     3.1549   -1.59335  -1.5995 
 C                     2.23356  -0.62187  -3.64476 
 H                     1.0267    1.10538  -3.41215 
 C                     4.04686  -0.16355   1.11623 
 C                     3.28095  -0.49372   3.41081 
 H                     1.29546  -1.17214   3.65853 
 C                     3.0153   -1.62075  -3.0139 
 C                     3.91388  -2.62745  -0.98539 
 H                     2.122    -0.64184  -4.72601 
 C                     4.30811  -0.12026   2.51206 
 C                     5.10601   0.18568   0.23195 
 H                     3.48485  -0.49336   4.47865 
 C                     3.64633  -2.64711  -3.76397 
 C                     4.51396  -3.60798  -1.73332 
 H                     4.00914  -2.64431   0.09445 
 C                     5.59033   0.27412   2.97887 
 C                     6.33883   0.55143   0.70735 
 H                     4.92914   0.17561  -0.83733 
 C                     4.38432  -3.61983  -3.14089 
 H                     3.52758  -2.6488   -4.84464 
 H                     5.08393  -4.38945  -1.2394 
 C                     6.58776   0.60193   2.09833 
 H                     5.76561   0.30631   4.05124 
 H                     7.12757   0.81694   0.00965 
 H                     4.86387  -4.40214  -3.72174 
 H                     7.56625   0.89962   2.46341 
 C                     1.07865   4.13094  -1.93579 
 C                    -0.79809   2.77299  -2.56342 
 C                     0.69319   5.08599  -2.87583 
 H                     1.95392   4.32449  -1.32652 
 C                    -1.18108   3.71942  -3.50832 
 H                    -1.40878   1.89044  -2.41345 
 C                    -0.43223   4.8825   -3.6705 
 H                     1.27652   5.99609  -2.98243 
 H                    -2.07307   3.54675  -4.10356 
 H                    -0.72837   5.62943  -4.40111 
 C                     3.25156   2.7641   -0.03165 
 C                     1.74417   2.74907   1.83927 
 C                     4.21811   3.39414   0.74424 
 H                     3.48441   2.50317  -1.06102 
 C                     2.71542   3.36747   2.62419 
 H                     0.78277   2.47494   2.26259 
 C                     3.95413   3.69255   2.07897 
 H                     5.18706   3.62583   0.31287 
 H                     2.50496   3.58715   3.66726 
 H                     4.71415   4.16882   2.69162 
 C                    -1.54336  -3.19522   2.23205 
 C                    -1.14068  -1.23593   3.56057 
 C                    -2.39743  -3.68657   3.21949 
 H                    -1.39949  -3.77846   1.329 
 C                    -1.97911  -1.73182   4.55457 
 H                    -0.70531  -0.24724   3.67533 
 C                    -2.61347  -2.96243   4.38686 
 H                    -2.89475  -4.64034   3.06878 
 H                    -2.14994  -1.14733   5.45378 
 H                    -3.27831  -3.34492   5.15531 
 C                     0.96511  -3.75921   0.32792 
 C                    -0.0009   -2.50149  -1.47962 
 C                     1.24198  -4.804    -0.54621 
 H                     1.24944  -3.84497   1.3741 
 C                     0.28609  -3.53957  -2.3621 
 H                    -0.44664  -1.57618  -1.82791 
 C                     0.90344  -4.69528  -1.89531 
 H                     1.73766  -5.69822  -0.17982 
 H                     0.04716  -3.43379  -3.41672 
 H                     1.13792  -5.5041   -2.58114 
 
 Add virtual bond connecting atoms H8         and C3         Dist= 3.56D+00.
 Add virtual bond connecting atoms H14        and O4         Dist= 3.80D+00.
 Add virtual bond connecting atoms H118       and H6         Dist= 3.84D+00.

 GradGradGradGradGradGradGradGradGradGradGradGradGradGradGradGradGradGrad
 Berny optimization.
 Initialization pass.
 Force constant matrix read from checkpoint file:
 "S_binap-TMEN_Ph.R.ts1.Cf1.chk"
                           ----------------------------
                           !    Initial Parameters    !
                           ! (Angstroms and Degrees)  !
 --------------------------                            --------------------------
 ! Name  Definition              Value          Derivative Info.                !
 --------------------------------------------------------------------------------
 ! R1    R(1,2)                  1.0988         D2E/DX2 =    0.337              !
 ! R2    R(2,3)                  1.5205         D2E/DX2 =    0.2704             !
 ! R3    R(2,6)                  1.0905         D2E/DX2 =    0.3555             !
 ! R4    R(2,7)                  1.0913         D2E/DX2 =    0.3549             !
 ! R5    R(3,4)                  1.2452         D2E/DX2 =    0.6521             !
 ! R6    R(3,5)                  1.5174         D2E/DX2 =    0.2773             !
 ! R7    R(3,8)                  1.8817         D2E/DX2 =    0.0248             !
 ! R8    R(4,14)                 2.0084         D2E/DX2 =    0.0425             !
 ! R9    R(5,22)                 1.3963         D2E/DX2 =    0.4056             !
 ! R10   R(5,23)                 1.3972         D2E/DX2 =    0.4012             !
 ! R11   R(6,118)                2.0336         D2E/DX2 =    0.0254             !
 ! R12   R(8,44)                 1.7795         D2E/DX2 =    0.1179             !
 ! R13   R(9,44)                 1.6466         D2E/DX2 =    0.1282             !
 ! R14   R(10,12)                1.4879         D2E/DX2 =    0.2521             !
 ! R15   R(10,13)                1.0186         D2E/DX2 =    0.4533             !
 ! R16   R(10,14)                1.0279         D2E/DX2 =    0.3975             !
 ! R17   R(10,44)                2.1736         D2E/DX2 =    0.1098             !
 ! R18   R(11,15)                1.5029         D2E/DX2 =    0.2545             !
 ! R19   R(11,16)                1.0186         D2E/DX2 =    0.4467             !
 ! R20   R(11,17)                1.0163         D2E/DX2 =    0.4584             !
 ! R21   R(11,44)                2.199          D2E/DX2 =    0.0791             !
 ! R22   R(12,15)                1.5726         D2E/DX2 =    0.2223             !
 ! R23   R(12,18)                1.5378         D2E/DX2 =    0.2802             !
 ! R24   R(12,19)                1.5336         D2E/DX2 =    0.2857             !
 ! R25   R(15,20)                1.5328         D2E/DX2 =    0.2908             !
 ! R26   R(15,21)                1.5332         D2E/DX2 =    0.2858             !
 ! R27   R(18,32)                1.0959         D2E/DX2 =    0.343              !
 ! R28   R(18,33)                1.0955         D2E/DX2 =    0.3448             !
 ! R29   R(18,34)                1.0935         D2E/DX2 =    0.3514             !
 ! R30   R(19,35)                1.0967         D2E/DX2 =    0.3415             !
 ! R31   R(19,36)                1.0904         D2E/DX2 =    0.3547             !
 ! R32   R(19,37)                1.0941         D2E/DX2 =    0.3476             !
 ! R33   R(20,38)                1.0918         D2E/DX2 =    0.3549             !
 ! R34   R(20,39)                1.0936         D2E/DX2 =    0.3491             !
 ! R35   R(20,40)                1.0958         D2E/DX2 =    0.3433             !
 ! R36   R(21,41)                1.0947         D2E/DX2 =    0.3469             !
 ! R37   R(21,42)                1.0957         D2E/DX2 =    0.3446             !
 ! R38   R(21,43)                1.095          D2E/DX2 =    0.3473             !
 ! R39   R(22,26)                1.3927         D2E/DX2 =    0.4126             !
 ! R40   R(22,27)                1.0845         D2E/DX2 =    0.3745             !
 ! R41   R(23,25)                1.3925         D2E/DX2 =    0.413              !
 ! R42   R(23,31)                1.086          D2E/DX2 =    0.369              !
 ! R43   R(24,25)                1.3931         D2E/DX2 =    0.4133             !
 ! R44   R(24,26)                1.3945         D2E/DX2 =    0.411              !
 ! R45   R(24,29)                1.086          D2E/DX2 =    0.367              !
 ! R46   R(25,30)                1.0861         D2E/DX2 =    0.3647             !
 ! R47   R(26,28)                1.0864         D2E/DX2 =    0.3665             !
 ! R48   R(44,45)                2.2609         D2E/DX2 =    0.1277             !
 ! R49   R(44,46)                2.2561         D2E/DX2 =    0.1337             !
 ! R50   R(45,47)                1.8606         D2E/DX2 =    0.1996             !
 ! R51   R(45,48)                1.8511         D2E/DX2 =    0.2064             !
 ! R52   R(45,49)                1.8558         D2E/DX2 =    0.1872             !
 ! R53   R(46,50)                1.8558         D2E/DX2 =    0.2032             !
 ! R54   R(46,51)                1.8463         D2E/DX2 =    0.2053             !
 ! R55   R(46,52)                1.8612         D2E/DX2 =    0.1862             !
 ! R56   R(47,83)                1.3999         D2E/DX2 =    0.3913             !
 ! R57   R(47,84)                1.4008         D2E/DX2 =    0.3947             !
 ! R58   R(48,93)                1.4003         D2E/DX2 =    0.3915             !
 ! R59   R(48,94)                1.3954         D2E/DX2 =    0.4018             !
 ! R60   R(49,53)                1.3882         D2E/DX2 =    0.3672             !
 ! R61   R(49,54)                1.4205         D2E/DX2 =    0.3557             !
 ! R62   R(50,103)               1.3991         D2E/DX2 =    0.3986             !
 ! R63   R(50,104)               1.4052         D2E/DX2 =    0.3846             !
 ! R64   R(51,113)               1.4001         D2E/DX2 =    0.392              !
 ! R65   R(51,114)               1.3914         D2E/DX2 =    0.4187             !
 ! R66   R(52,55)                1.39           D2E/DX2 =    0.3591             !
 ! R67   R(52,56)                1.4192         D2E/DX2 =    0.3567             !
 ! R68   R(53,55)                1.5029         D2E/DX2 =    0.2572             !
 ! R69   R(53,57)                1.437          D2E/DX2 =    0.3503             !
 ! R70   R(54,58)                1.367          D2E/DX2 =    0.4693             !
 ! R71   R(54,59)                1.085          D2E/DX2 =    0.3707             !
 ! R72   R(55,60)                1.4373         D2E/DX2 =    0.3508             !
 ! R73   R(56,61)                1.3675         D2E/DX2 =    0.4694             !
 ! R74   R(56,62)                1.0829         D2E/DX2 =    0.3779             !
 ! R75   R(57,63)                1.4215         D2E/DX2 =    0.3043             !
 ! R76   R(57,64)                1.4222         D2E/DX2 =    0.3593             !
 ! R77   R(58,63)                1.4166         D2E/DX2 =    0.371              !
 ! R78   R(58,65)                1.0872         D2E/DX2 =    0.3642             !
 ! R79   R(60,66)                1.4207         D2E/DX2 =    0.3067             !
 ! R80   R(60,67)                1.4233         D2E/DX2 =    0.3563             !
 ! R81   R(61,66)                1.415          D2E/DX2 =    0.3752             !
 ! R82   R(61,68)                1.0871         D2E/DX2 =    0.365              !
 ! R83   R(63,69)                1.4192         D2E/DX2 =    0.3665             !
 ! R84   R(64,70)                1.3715         D2E/DX2 =    0.4589             !
 ! R85   R(64,71)                1.0842         D2E/DX2 =    0.3725             !
 ! R86   R(66,72)                1.4204         D2E/DX2 =    0.3648             !
 ! R87   R(67,73)                1.371          D2E/DX2 =    0.4608             !
 ! R88   R(67,74)                1.0839         D2E/DX2 =    0.3743             !
 ! R89   R(69,75)                1.3708         D2E/DX2 =    0.4613             !
 ! R90   R(69,76)                1.0872         D2E/DX2 =    0.3646             !
 ! R91   R(70,75)                1.4136         D2E/DX2 =    0.371              !
 ! R92   R(70,77)                1.0861         D2E/DX2 =    0.3663             !
 ! R93   R(72,78)                1.3703         D2E/DX2 =    0.464              !
 ! R94   R(72,79)                1.0871         D2E/DX2 =    0.3654             !
 ! R95   R(73,78)                1.414          D2E/DX2 =    0.371              !
 ! R96   R(73,80)                1.086          D2E/DX2 =    0.3682             !
 ! R97   R(75,81)                1.086          D2E/DX2 =    0.3669             !
 ! R98   R(78,82)                1.086          D2E/DX2 =    0.3679             !
 ! R99   R(83,85)                1.3944         D2E/DX2 =    0.4076             !
 ! R100  R(83,86)                1.0839         D2E/DX2 =    0.3761             !
 ! R101  R(84,87)                1.3911         D2E/DX2 =    0.4111             !
 ! R102  R(84,88)                1.0837         D2E/DX2 =    0.3802             !
 ! R103  R(85,89)                1.3926         D2E/DX2 =    0.4128             !
 ! R104  R(85,90)                1.0862         D2E/DX2 =    0.3679             !
 ! R105  R(87,89)                1.3928         D2E/DX2 =    0.4137             !
 ! R106  R(87,91)                1.0862         D2E/DX2 =    0.3685             !
 ! R107  R(89,92)                1.086          D2E/DX2 =    0.3687             !
 ! R108  R(93,95)                1.3904         D2E/DX2 =    0.4152             !
 ! R109  R(93,96)                1.0871         D2E/DX2 =    0.3642             !
 ! R110  R(94,97)                1.3935         D2E/DX2 =    0.4086             !
 ! R111  R(94,98)                1.0857         D2E/DX2 =    0.3696             !
 ! R112  R(95,99)                1.3929         D2E/DX2 =    0.4134             !
 ! R113  R(95,100)               1.0856         D2E/DX2 =    0.3684             !
 ! R114  R(97,99)                1.3919         D2E/DX2 =    0.4152             !
 ! R115  R(97,101)               1.0865         D2E/DX2 =    0.3636             !
 ! R116  R(99,102)               1.0862         D2E/DX2 =    0.3679             !
 ! R117  R(103,105)              1.3949         D2E/DX2 =    0.4082             !
 ! R118  R(103,106)              1.0846         D2E/DX2 =    0.3743             !
 ! R119  R(104,107)              1.3917         D2E/DX2 =    0.414              !
 ! R120  R(104,108)              1.0864         D2E/DX2 =    0.3657             !
 ! R121  R(105,109)              1.3906         D2E/DX2 =    0.4182             !
 ! R122  R(105,110)              1.0862         D2E/DX2 =    0.3666             !
 ! R123  R(107,109)              1.3946         D2E/DX2 =    0.4102             !
 ! R124  R(107,111)              1.086          D2E/DX2 =    0.3685             !
 ! R125  R(109,112)              1.0857         D2E/DX2 =    0.3687             !
 ! R126  R(113,115)              1.3901         D2E/DX2 =    0.4169             !
 ! R127  R(113,116)              1.0875         D2E/DX2 =    0.3637             !
 ! R128  R(114,117)              1.3924         D2E/DX2 =    0.4119             !
 ! R129  R(114,118)              1.0845         D2E/DX2 =    0.3755             !
 ! R130  R(115,119)              1.3952         D2E/DX2 =    0.408              !
 ! R131  R(115,120)              1.0861         D2E/DX2 =    0.3681             !
 ! R132  R(117,119)              1.3909         D2E/DX2 =    0.4174             !
 ! R133  R(117,121)              1.0865         D2E/DX2 =    0.3665             !
 ! R134  R(119,122)              1.0861         D2E/DX2 =    0.3679             !
 ! A1    A(1,2,3)              106.6827         D2E/DX2 =    0.0988             !
 ! A2    A(1,2,6)              107.7426         D2E/DX2 =    0.0494             !
 ! A3    A(1,2,7)              108.3182         D2E/DX2 =    0.0475             !
 ! A4    A(3,2,6)              112.4331         D2E/DX2 =    0.1045             !
 ! A5    A(3,2,7)              111.567          D2E/DX2 =    0.1018             !
 ! A6    A(6,2,7)              109.8913         D2E/DX2 =    0.0546             !
 ! A7    A(2,3,4)              119.6452         D2E/DX2 =    0.0771             !
 ! A8    A(2,3,5)              114.7544         D2E/DX2 =    0.1025             !
 ! A9    A(2,3,8)               92.9464         D2E/DX2 =    0.0761             !
 ! A10   A(4,3,5)              118.8459         D2E/DX2 =    0.0848             !
 ! A11   A(4,3,8)              105.1115         D2E/DX2 =    0.034              !
 ! A12   A(5,3,8)               97.6873         D2E/DX2 =    0.0903             !
 ! A13   A(3,4,14)             107.7962         D2E/DX2 =    0.16               !
 ! A14   A(3,5,22)             124.4221         D2E/DX2 =    0.1691             !
 ! A15   A(3,5,23)             116.6488         D2E/DX2 =    0.1606             !
 ! A16   A(22,5,23)            118.8977         D2E/DX2 =    0.0878             !
 ! A17   A(2,6,118)            117.4199         D2E/DX2 =    0.16               !
 ! A18   A(3,8,44)             149.6385         D2E/DX2 =    0.6309             !
 ! A19   A(12,10,13)           108.623          D2E/DX2 =    0.0251             !
 ! A20   A(12,10,14)           109.5805         D2E/DX2 =    0.0172             !
 ! A21   A(12,10,44)           114.0432         D2E/DX2 =    0.0333             !
 ! A22   A(13,10,14)           105.6878         D2E/DX2 =    0.0099             !
 ! A23   A(13,10,44)           114.2052         D2E/DX2 =    0.0214             !
 ! A24   A(14,10,44)           104.2252         D2E/DX2 =    0.0234             !
 ! A25   A(15,11,16)           108.8313         D2E/DX2 =    0.0232             !
 ! A26   A(15,11,17)           108.9921         D2E/DX2 =    0.0209             !
 ! A27   A(15,11,44)           117.9185         D2E/DX2 =    0.0364             !
 ! A28   A(16,11,17)           105.6078         D2E/DX2 =    0.0087             !
 ! A29   A(16,11,44)           109.1726         D2E/DX2 =    0.0231             !
 ! A30   A(17,11,44)           105.6171         D2E/DX2 =    0.0204             !
 ! A31   A(10,12,15)           106.6586         D2E/DX2 =    0.024              !
 ! A32   A(10,12,18)           109.1015         D2E/DX2 =    0.0286             !
 ! A33   A(10,12,19)           108.6811         D2E/DX2 =    0.032              !
 ! A34   A(15,12,18)           112.1728         D2E/DX2 =    0.0347             !
 ! A35   A(15,12,19)           112.69           D2E/DX2 =    0.0308             !
 ! A36   A(18,12,19)           107.4549         D2E/DX2 =    0.036              !
 ! A37   A(4,14,10)            163.0587         D2E/DX2 =    0.25               !
 ! A38   A(11,15,12)           108.9157         D2E/DX2 =    0.0239             !
 ! A39   A(11,15,20)           108.1244         D2E/DX2 =    0.035              !
 ! A40   A(11,15,21)           108.4151         D2E/DX2 =    0.0303             !
 ! A41   A(12,15,20)           111.0658         D2E/DX2 =    0.0345             !
 ! A42   A(12,15,21)           112.0056         D2E/DX2 =    0.0338             !
 ! A43   A(20,15,21)           108.2053         D2E/DX2 =    0.034              !
 ! A44   A(12,18,32)           109.345          D2E/DX2 =    0.1129             !
 ! A45   A(12,18,33)           111.4165         D2E/DX2 =    0.1068             !
 ! A46   A(12,18,34)           112.0508         D2E/DX2 =    0.1103             !
 ! A47   A(32,18,33)           107.5968         D2E/DX2 =    0.0526             !
 ! A48   A(32,18,34)           107.8905         D2E/DX2 =    0.0544             !
 ! A49   A(33,18,34)           108.3804         D2E/DX2 =    0.055              !
 ! A50   A(12,19,35)           109.4817         D2E/DX2 =    0.1108             !
 ! A51   A(12,19,36)           111.7181         D2E/DX2 =    0.105              !
 ! A52   A(12,19,37)           110.4489         D2E/DX2 =    0.1098             !
 ! A53   A(35,19,36)           107.7044         D2E/DX2 =    0.0531             !
 ! A54   A(35,19,37)           107.6013         D2E/DX2 =    0.0522             !
 ! A55   A(36,19,37)           109.7598         D2E/DX2 =    0.0529             !
 ! A56   A(15,20,38)           111.9693         D2E/DX2 =    0.1151             !
 ! A57   A(15,20,39)           110.6703         D2E/DX2 =    0.1047             !
 ! A58   A(15,20,40)           109.9102         D2E/DX2 =    0.1115             !
 ! A59   A(38,20,39)           108.5877         D2E/DX2 =    0.0548             !
 ! A60   A(38,20,40)           108.0119         D2E/DX2 =    0.0549             !
 ! A61   A(39,20,40)           107.5511         D2E/DX2 =    0.0516             !
 ! A62   A(15,21,41)           111.9986         D2E/DX2 =    0.1118             !
 ! A63   A(15,21,42)           109.392          D2E/DX2 =    0.1095             !
 ! A64   A(15,21,43)           111.2577         D2E/DX2 =    0.106              !
 ! A65   A(41,21,42)           108.057          D2E/DX2 =    0.0541             !
 ! A66   A(41,21,43)           108.1288         D2E/DX2 =    0.0549             !
 ! A67   A(42,21,43)           107.8676         D2E/DX2 =    0.0521             !
 ! A68   A(5,22,26)            120.4793         D2E/DX2 =    0.0853             !
 ! A69   A(5,22,27)            119.0376         D2E/DX2 =    0.0844             !
 ! A70   A(26,22,27)           120.4266         D2E/DX2 =    0.0836             !
 ! A71   A(5,23,25)            120.7307         D2E/DX2 =    0.0856             !
 ! A72   A(5,23,31)            119.0276         D2E/DX2 =    0.0854             !
 ! A73   A(25,23,31)           120.2316         D2E/DX2 =    0.0845             !
 ! A74   A(25,24,26)           119.5633         D2E/DX2 =    0.0835             !
 ! A75   A(25,24,29)           120.2077         D2E/DX2 =    0.0833             !
 ! A76   A(26,24,29)           120.229          D2E/DX2 =    0.0832             !
 ! A77   A(23,25,24)           120.0393         D2E/DX2 =    0.083              !
 ! A78   A(23,25,30)           119.8123         D2E/DX2 =    0.0828             !
 ! A79   A(24,25,30)           120.1434         D2E/DX2 =    0.0829             !
 ! A80   A(22,26,24)           120.2625         D2E/DX2 =    0.0841             !
 ! A81   A(22,26,28)           119.5989         D2E/DX2 =    0.0843             !
 ! A82   A(24,26,28)           120.1359         D2E/DX2 =    0.085              !
 ! A83   A(8,44,10)             85.291          D2E/DX2 =    0.0266             !
 ! A84   A(8,44,11)             89.1379         D2E/DX2 =    0.0279             !
 ! A85   A(8,44,45)             96.4829         D2E/DX2 =    0.0232             !
 ! A86   A(8,44,46)             97.0138         D2E/DX2 =    0.0313             !
 ! A87   A(9,44,10)             92.1726         D2E/DX2 =    0.0075             !
 ! A88   A(9,44,11)             84.6111         D2E/DX2 =    0.0096             !
 ! A89   A(9,44,45)             89.5647         D2E/DX2 =    0.0116             !
 ! A90   A(9,44,46)             84.592          D2E/DX2 =    0.0114             !
 ! A91   A(10,44,11)            74.2556         D2E/DX2 =    0.022              !
 ! A92   A(10,44,45)            97.3479         D2E/DX2 =    0.0353             !
 ! A93   A(11,44,46)            96.6722         D2E/DX2 =    0.0373             !
 ! A94   A(45,44,46)            91.4092         D2E/DX2 =    0.0259             !
 ! A95   A(44,45,47)           113.3824         D2E/DX2 =    0.0688             !
 ! A96   A(44,45,48)           121.8247         D2E/DX2 =    0.0668             !
 ! A97   A(44,45,49)           114.0005         D2E/DX2 =    0.072              !
 ! A98   A(47,45,48)           100.8585         D2E/DX2 =    0.0576             !
 ! A99   A(47,45,49)           103.6516         D2E/DX2 =    0.0411             !
 ! A100  A(48,45,49)           100.712          D2E/DX2 =    0.0487             !
 ! A101  A(44,46,50)           108.4694         D2E/DX2 =    0.0764             !
 ! A102  A(44,46,51)           124.4694         D2E/DX2 =    0.0613             !
 ! A103  A(44,46,52)           115.5873         D2E/DX2 =    0.0633             !
 ! A104  A(50,46,51)           101.5175         D2E/DX2 =    0.0506             !
 ! A105  A(50,46,52)           106.3562         D2E/DX2 =    0.0365             !
 ! A106  A(51,46,52)            98.4308         D2E/DX2 =    0.0644             !
 ! A107  A(45,47,83)           125.5897         D2E/DX2 =    0.1421             !
 ! A108  A(45,47,84)           116.4199         D2E/DX2 =    0.1272             !
 ! A109  A(83,47,84)           117.9466         D2E/DX2 =    0.0877             !
 ! A110  A(45,48,93)           120.7324         D2E/DX2 =    0.1281             !
 ! A111  A(45,48,94)           120.7698         D2E/DX2 =    0.1451             !
 ! A112  A(93,48,94)           118.4977         D2E/DX2 =    0.0865             !
 ! A113  A(45,49,53)           120.9068         D2E/DX2 =    0.0596             !
 ! A114  A(45,49,54)           118.9245         D2E/DX2 =    0.1032             !
 ! A115  A(53,49,54)           119.502          D2E/DX2 =    0.0788             !
 ! A116  A(46,50,103)          121.5142         D2E/DX2 =    0.1552             !
 ! A117  A(46,50,104)          119.5939         D2E/DX2 =    0.1412             !
 ! A118  A(103,50,104)         117.8035         D2E/DX2 =    0.087              !
 ! A119  A(46,51,113)          121.9608         D2E/DX2 =    0.1159             !
 ! A120  A(46,51,114)          118.9621         D2E/DX2 =    0.1235             !
 ! A121  A(113,51,114)         118.952          D2E/DX2 =    0.0847             !
 ! A122  A(46,52,55)           120.0823         D2E/DX2 =    0.0682             !
 ! A123  A(46,52,56)           120.4072         D2E/DX2 =    0.1145             !
 ! A124  A(55,52,56)           119.2594         D2E/DX2 =    0.082              !
 ! A125  A(49,53,55)           122.3715         D2E/DX2 =    0.0734             !
 ! A126  A(49,53,57)           119.7419         D2E/DX2 =    0.0799             !
 ! A127  A(55,53,57)           117.8728         D2E/DX2 =    0.1118             !
 ! A128  A(49,54,58)           121.5207         D2E/DX2 =    0.079              !
 ! A129  A(49,54,59)           119.2626         D2E/DX2 =    0.086              !
 ! A130  A(58,54,59)           119.2156         D2E/DX2 =    0.0872             !
 ! A131  A(52,55,53)           122.8878         D2E/DX2 =    0.0752             !
 ! A132  A(52,55,60)           119.7578         D2E/DX2 =    0.0811             !
 ! A133  A(53,55,60)           117.3469         D2E/DX2 =    0.117              !
 ! A134  A(52,56,61)           121.6998         D2E/DX2 =    0.08               !
 ! A135  A(52,56,62)           119.6262         D2E/DX2 =    0.0876             !
 ! A136  A(61,56,62)           118.6724         D2E/DX2 =    0.0901             !
 ! A137  A(53,57,63)           119.714          D2E/DX2 =    0.0802             !
 ! A138  A(53,57,64)           122.3739         D2E/DX2 =    0.1136             !
 ! A139  A(63,57,64)           117.9067         D2E/DX2 =    0.0861             !
 ! A140  A(54,58,63)           120.586          D2E/DX2 =    0.0812             !
 ! A141  A(54,58,65)           120.2988         D2E/DX2 =    0.0835             !
 ! A142  A(63,58,65)           119.1151         D2E/DX2 =    0.0837             !
 ! A143  A(55,60,66)           119.7872         D2E/DX2 =    0.0808             !
 ! A144  A(55,60,67)           122.424          D2E/DX2 =    0.114              !
 ! A145  A(66,60,67)           117.7808         D2E/DX2 =    0.0861             !
 ! A146  A(56,61,66)           120.5795         D2E/DX2 =    0.0811             !
 ! A147  A(56,61,68)           120.2303         D2E/DX2 =    0.0846             !
 ! A148  A(66,61,68)           119.1861         D2E/DX2 =    0.085              !
 ! A149  A(57,63,58)           118.9261         D2E/DX2 =    0.0799             !
 ! A150  A(57,63,69)           119.7443         D2E/DX2 =    0.0816             !
 ! A151  A(58,63,69)           121.3271         D2E/DX2 =    0.1049             !
 ! A152  A(57,64,70)           121.1907         D2E/DX2 =    0.0836             !
 ! A153  A(57,64,71)           119.2278         D2E/DX2 =    0.0835             !
 ! A154  A(70,64,71)           119.5782         D2E/DX2 =    0.0854             !
 ! A155  A(60,66,61)           118.8483         D2E/DX2 =    0.0806             !
 ! A156  A(60,66,72)           119.8245         D2E/DX2 =    0.0823             !
 ! A157  A(61,66,72)           121.3204         D2E/DX2 =    0.1064             !
 ! A158  A(60,67,73)           121.2779         D2E/DX2 =    0.0839             !
 ! A159  A(60,67,74)           119.2897         D2E/DX2 =    0.0831             !
 ! A160  A(73,67,74)           119.4265         D2E/DX2 =    0.0848             !
 ! A161  A(63,69,75)           120.8187         D2E/DX2 =    0.0829             !
 ! A162  A(63,69,76)           118.5486         D2E/DX2 =    0.0843             !
 ! A163  A(75,69,76)           120.6319         D2E/DX2 =    0.0839             !
 ! A164  A(64,70,75)           120.5902         D2E/DX2 =    0.0804             !
 ! A165  A(64,70,77)           119.7394         D2E/DX2 =    0.0833             !
 ! A166  A(75,70,77)           119.6663         D2E/DX2 =    0.0831             !
 ! A167  A(66,72,78)           120.8187         D2E/DX2 =    0.0828             !
 ! A168  A(66,72,79)           118.5527         D2E/DX2 =    0.0858             !
 ! A169  A(78,72,79)           120.6281         D2E/DX2 =    0.0854             !
 ! A170  A(67,73,78)           120.5938         D2E/DX2 =    0.0809             !
 ! A171  A(67,73,80)           119.7054         D2E/DX2 =    0.0838             !
 ! A172  A(78,73,80)           119.6963         D2E/DX2 =    0.0835             !
 ! A173  A(69,75,70)           119.7382         D2E/DX2 =    0.0807             !
 ! A174  A(69,75,81)           120.3847         D2E/DX2 =    0.0822             !
 ! A175  A(70,75,81)           119.876          D2E/DX2 =    0.0822             !
 ! A176  A(72,78,73)           119.6998         D2E/DX2 =    0.0809             !
 ! A177  A(72,78,82)           120.358          D2E/DX2 =    0.0823             !
 ! A178  A(73,78,82)           119.9422         D2E/DX2 =    0.0824             !
 ! A179  A(47,83,85)           120.7506         D2E/DX2 =    0.0827             !
 ! A180  A(47,83,86)           120.5693         D2E/DX2 =    0.087              !
 ! A181  A(85,83,86)           118.6774         D2E/DX2 =    0.0886             !
 ! A182  A(47,84,87)           121.4638         D2E/DX2 =    0.0841             !
 ! A183  A(47,84,88)           118.9807         D2E/DX2 =    0.083              !
 ! A184  A(87,84,88)           119.5333         D2E/DX2 =    0.0833             !
 ! A185  A(83,85,89)           120.5303         D2E/DX2 =    0.0827             !
 ! A186  A(83,85,90)           119.443          D2E/DX2 =    0.083              !
 ! A187  A(89,85,90)           120.0262         D2E/DX2 =    0.083              !
 ! A188  A(84,87,89)           119.9469         D2E/DX2 =    0.0817             !
 ! A189  A(84,87,91)           119.3514         D2E/DX2 =    0.0824             !
 ! A190  A(89,87,91)           120.6961         D2E/DX2 =    0.081              !
 ! A191  A(85,89,87)           119.3453         D2E/DX2 =    0.0823             !
 ! A192  A(85,89,92)           120.2487         D2E/DX2 =    0.0833             !
 ! A193  A(87,89,92)           120.4023         D2E/DX2 =    0.0833             !
 ! A194  A(48,93,95)           120.9449         D2E/DX2 =    0.0846             !
 ! A195  A(48,93,96)           119.813          D2E/DX2 =    0.0874             !
 ! A196  A(95,93,96)           119.2253         D2E/DX2 =    0.0869             !
 ! A197  A(48,94,97)           120.7276         D2E/DX2 =    0.0833             !
 ! A198  A(48,94,98)           118.6088         D2E/DX2 =    0.0863             !
 ! A199  A(97,94,98)           120.6399         D2E/DX2 =    0.0841             !
 ! A200  A(93,95,99)           120.0039         D2E/DX2 =    0.0829             !
 ! A201  A(93,95,100)          119.6976         D2E/DX2 =    0.0835             !
 ! A202  A(99,95,100)          120.2755         D2E/DX2 =    0.0835             !
 ! A203  A(94,97,99)           120.2181         D2E/DX2 =    0.0827             !
 ! A204  A(94,97,101)          119.7            D2E/DX2 =    0.0842             !
 ! A205  A(99,97,101)          120.0796         D2E/DX2 =    0.0842             !
 ! A206  A(95,99,97)           119.6017         D2E/DX2 =    0.083              !
 ! A207  A(95,99,102)          120.1189         D2E/DX2 =    0.0829             !
 ! A208  A(97,99,102)          120.2776         D2E/DX2 =    0.0829             !
 ! A209  A(50,103,105)         121.0807         D2E/DX2 =    0.0839             !
 ! A210  A(50,103,106)         120.1533         D2E/DX2 =    0.0909             !
 ! A211  A(105,103,106)        118.7626         D2E/DX2 =    0.0915             !
 ! A212  A(50,104,107)         121.2039         D2E/DX2 =    0.085              !
 ! A213  A(50,104,108)         119.3878         D2E/DX2 =    0.0876             !
 ! A214  A(107,104,108)        119.3571         D2E/DX2 =    0.0868             !
 ! A215  A(103,105,109)        120.3928         D2E/DX2 =    0.083              !
 ! A216  A(103,105,110)        119.4341         D2E/DX2 =    0.0848             !
 ! A217  A(109,105,110)        120.1731         D2E/DX2 =    0.0847             !
 ! A218  A(104,107,109)        120.1686         D2E/DX2 =    0.083              !
 ! A219  A(104,107,111)        119.6281         D2E/DX2 =    0.0831             !
 ! A220  A(109,107,111)        120.195          D2E/DX2 =    0.0831             !
 ! A221  A(105,109,107)        119.3267         D2E/DX2 =    0.0828             !
 ! A222  A(105,109,112)        120.3861         D2E/DX2 =    0.0837             !
 ! A223  A(107,109,112)        120.2833         D2E/DX2 =    0.0836             !
 ! A224  A(51,113,115)         120.4375         D2E/DX2 =    0.0838             !
 ! A225  A(51,113,116)         119.986          D2E/DX2 =    0.0857             !
 ! A226  A(115,113,116)        119.5765         D2E/DX2 =    0.0855             !
 ! A227  A(51,114,117)         120.8367         D2E/DX2 =    0.0841             !
 ! A228  A(51,114,118)         117.9662         D2E/DX2 =    0.0892             !
 ! A229  A(117,114,118)        121.1487         D2E/DX2 =    0.0839             !
 ! A230  A(113,115,119)        120.077          D2E/DX2 =    0.0829             !
 ! A231  A(113,115,120)        119.8415         D2E/DX2 =    0.0837             !
 ! A232  A(119,115,120)        120.0734         D2E/DX2 =    0.0837             !
 ! A233  A(114,117,119)        119.8838         D2E/DX2 =    0.0831             !
 ! A234  A(114,117,121)        119.8202         D2E/DX2 =    0.0834             !
 ! A235  A(119,117,121)        120.2813         D2E/DX2 =    0.0836             !
 ! A236  A(6,118,114)          124.021          D2E/DX2 =    0.16               !
 ! A237  A(115,119,117)        119.7992         D2E/DX2 =    0.0833             !
 ! A238  A(115,119,122)        120.0135         D2E/DX2 =    0.083              !
 ! A239  A(117,119,122)        120.1782         D2E/DX2 =    0.0831             !
 ! A240  L(8,44,9,10,-1)       177.4636         D2E/DX2 =    0.0181             !
 ! A241  L(10,44,46,8,-1)      182.3048         D2E/DX2 =    0.0133             !
 ! A242  L(11,44,45,8,-1)      185.6208         D2E/DX2 =    0.0139             !
 ! A243  L(8,44,9,10,-2)       174.2121         D2E/DX2 =    0.0142             !
 ! A244  L(10,44,46,8,-2)      189.1105         D2E/DX2 =    0.0335             !
 ! A245  L(11,44,45,8,-2)      171.1529         D2E/DX2 =    0.0346             !
 ! D1    D(1,2,3,4)            -69.7907         D2E/DX2 =    0.0168             !
 ! D2    D(1,2,3,5)             81.1023         D2E/DX2 =    0.0228             !
 ! D3    D(1,2,3,8)           -179.0384         D2E/DX2 =    0.0288             !
 ! D4    D(6,2,3,4)            172.3111         D2E/DX2 =    0.0175             !
 ! D5    D(6,2,3,5)            -36.7959         D2E/DX2 =    0.0233             !
 ! D6    D(6,2,3,8)             63.0635         D2E/DX2 =    0.0292             !
 ! D7    D(7,2,3,4)             48.3254         D2E/DX2 =    0.0168             !
 ! D8    D(7,2,3,5)           -160.7817         D2E/DX2 =    0.0231             !
 ! D9    D(7,2,3,8)            -60.9223         D2E/DX2 =    0.0281             !
 ! D10   D(1,2,6,118)          172.4209         D2E/DX2 =    0.0023             !
 ! D11   D(3,2,6,118)          -70.3094         D2E/DX2 =    0.0023             !
 ! D12   D(7,2,6,118)           54.6009         D2E/DX2 =    0.0023             !
 ! D13   D(2,3,4,14)          -118.7682         D2E/DX2 =    0.0374             !
 ! D14   D(5,3,4,14)            91.518          D2E/DX2 =    0.0374             !
 ! D15   D(8,3,4,14)           -16.3558         D2E/DX2 =    0.0374             !
 ! D16   D(2,3,5,22)            68.6937         D2E/DX2 =    0.0145             !
 ! D17   D(2,3,5,23)          -109.2394         D2E/DX2 =    0.0143             !
 ! D18   D(4,3,5,22)          -140.1655         D2E/DX2 =    0.0197             !
 ! D19   D(4,3,5,23)            41.9014         D2E/DX2 =    0.0169             !
 ! D20   D(8,3,5,22)           -28.1613         D2E/DX2 =    0.0281             !
 ! D21   D(8,3,5,23)           153.9056         D2E/DX2 =    0.03               !
 ! D22   D(2,3,8,44)           156.0384         D2E/DX2 =    0.0599             !
 ! D23   D(4,3,8,44)            34.2407         D2E/DX2 =    0.0589             !
 ! D24   D(5,3,8,44)           -88.4919         D2E/DX2 =    0.1039             !
 ! D25   D(3,4,14,10)           17.6987         D2E/DX2 =    0.0023             !
 ! D26   D(3,5,22,26)         -179.7607         D2E/DX2 =    0.0078             !
 ! D27   D(3,5,22,27)            2.9601         D2E/DX2 =    0.0081             !
 ! D28   D(23,5,22,26)          -1.8708         D2E/DX2 =    0.0075             !
 ! D29   D(23,5,22,27)        -179.15           D2E/DX2 =    0.0082             !
 ! D30   D(3,5,23,25)          179.0477         D2E/DX2 =    0.0073             !
 ! D31   D(3,5,23,31)           -2.1093         D2E/DX2 =    0.0078             !
 ! D32   D(22,5,23,25)           0.9951         D2E/DX2 =    0.0075             !
 ! D33   D(22,5,23,31)         179.8381         D2E/DX2 =    0.0073             !
 ! D34   D(2,6,118,114)        175.4188         D2E/DX2 =    0.0023             !
 ! D35   D(3,8,44,10)          -22.566          D2E/DX2 =    0.0315             !
 ! D36   D(3,8,44,11)           51.7068         D2E/DX2 =    0.0328             !
 ! D37   D(3,8,44,45)         -119.4461         D2E/DX2 =    0.0328             !
 ! D38   D(3,8,44,46)          148.3235         D2E/DX2 =    0.0356             !
 ! D39   D(13,10,12,15)       -176.675          D2E/DX2 =    0.0126             !
 ! D40   D(13,10,12,18)         61.9583         D2E/DX2 =    0.0172             !
 ! D41   D(13,10,12,19)        -54.9252         D2E/DX2 =    0.0154             !
 ! D42   D(14,10,12,15)         68.3189         D2E/DX2 =    0.0151             !
 ! D43   D(14,10,12,18)        -53.0478         D2E/DX2 =    0.0182             !
 ! D44   D(14,10,12,19)       -169.9314         D2E/DX2 =    0.0183             !
 ! D45   D(44,10,12,15)        -48.0586         D2E/DX2 =    0.0078             !
 ! D46   D(44,10,12,18)       -169.4253         D2E/DX2 =    0.0204             !
 ! D47   D(44,10,12,19)         73.6911         D2E/DX2 =    0.0179             !
 ! D48   D(12,10,14,4)        -129.5404         D2E/DX2 =    0.0066             !
 ! D49   D(13,10,14,4)         113.5904         D2E/DX2 =    0.0066             !
 ! D50   D(44,10,14,4)          -7.1094         D2E/DX2 =    0.0066             !
 ! D51   D(12,10,44,8)         123.3606         D2E/DX2 =    0.018              !
 ! D52   D(12,10,44,9)         -50.8516         D2E/DX2 =    0.0064             !
 ! D53   D(12,10,44,11)         32.9287         D2E/DX2 =    0.0058             !
 ! D54   D(12,10,44,45)       -140.6927         D2E/DX2 =    0.0109             !
 ! D55   D(13,10,44,8)        -110.9119         D2E/DX2 =    0.0129             !
 ! D56   D(13,10,44,9)          74.876          D2E/DX2 =    0.0049             !
 ! D57   D(13,10,44,11)        158.6562         D2E/DX2 =    0.0075             !
 ! D58   D(13,10,44,45)        -14.9651         D2E/DX2 =    0.0098             !
 ! D59   D(14,10,44,8)           3.9098         D2E/DX2 =    0.0143             !
 ! D60   D(14,10,44,9)        -170.3023         D2E/DX2 =    0.0055             !
 ! D61   D(14,10,44,11)        -86.5221         D2E/DX2 =    0.009              !
 ! D62   D(14,10,44,45)         99.8566         D2E/DX2 =    0.0107             !
 ! D63   D(12,10,46,50)         15.1197         D2E/DX2 =    0.0083             !
 ! D64   D(12,10,46,51)        131.0676         D2E/DX2 =    0.0152             !
 ! D65   D(12,10,46,52)       -102.2523         D2E/DX2 =    0.008              !
 ! D66   D(13,10,46,50)        140.0631         D2E/DX2 =    0.0083             !
 ! D67   D(13,10,46,51)       -103.989          D2E/DX2 =    0.0129             !
 ! D68   D(13,10,46,52)         22.691          D2E/DX2 =    0.0061             !
 ! D69   D(14,10,46,50)       -102.5055         D2E/DX2 =    0.0098             !
 ! D70   D(14,10,46,51)         13.4424         D2E/DX2 =    0.0114             !
 ! D71   D(14,10,46,52)        140.1224         D2E/DX2 =    0.0092             !
 ! D72   D(16,11,15,12)       -136.2189         D2E/DX2 =    0.0123             !
 ! D73   D(16,11,15,20)        -15.4242         D2E/DX2 =    0.0155             !
 ! D74   D(16,11,15,21)        101.6701         D2E/DX2 =    0.0164             !
 ! D75   D(17,11,15,12)        109.0722         D2E/DX2 =    0.0123             !
 ! D76   D(17,11,15,20)       -130.1331         D2E/DX2 =    0.0171             !
 ! D77   D(17,11,15,21)        -13.0387         D2E/DX2 =    0.0154             !
 ! D78   D(44,11,15,12)        -11.2311         D2E/DX2 =    0.0064             !
 ! D79   D(44,11,15,20)        109.5636         D2E/DX2 =    0.0195             !
 ! D80   D(44,11,15,21)       -133.342          D2E/DX2 =    0.0185             !
 ! D81   D(15,11,44,8)         -95.9749         D2E/DX2 =    0.0192             !
 ! D82   D(15,11,44,9)          83.1687         D2E/DX2 =    0.006              !
 ! D83   D(15,11,44,10)        -10.6246         D2E/DX2 =    0.0053             !
 ! D84   D(15,11,44,46)        167.064          D2E/DX2 =    0.0114             !
 ! D85   D(16,11,44,8)          28.8444         D2E/DX2 =    0.015              !
 ! D86   D(16,11,44,9)        -152.0119         D2E/DX2 =    0.0046             !
 ! D87   D(16,11,44,10)        114.1948         D2E/DX2 =    0.0074             !
 ! D88   D(16,11,44,46)        -68.1167         D2E/DX2 =    0.011              !
 ! D89   D(17,11,44,8)         141.9833         D2E/DX2 =    0.0155             !
 ! D90   D(17,11,44,9)         -38.8731         D2E/DX2 =    0.0046             !
 ! D91   D(17,11,44,10)       -132.6664         D2E/DX2 =    0.0072             !
 ! D92   D(17,11,44,46)         45.0222         D2E/DX2 =    0.011              !
 ! D93   D(15,11,45,47)        -32.312          D2E/DX2 =    0.0092             !
 ! D94   D(15,11,45,48)         83.9303         D2E/DX2 =    0.0117             !
 ! D95   D(15,11,45,49)       -152.3015         D2E/DX2 =    0.0101             !
 ! D96   D(16,11,45,47)         92.6139         D2E/DX2 =    0.0087             !
 ! D97   D(16,11,45,48)       -151.1438         D2E/DX2 =    0.0129             !
 ! D98   D(16,11,45,49)        -27.3756         D2E/DX2 =    0.0066             !
 ! D99   D(17,11,45,47)       -151.7351         D2E/DX2 =    0.0106             !
 ! D100  D(17,11,45,48)        -35.4928         D2E/DX2 =    0.0102             !
 ! D101  D(17,11,45,49)         88.2754         D2E/DX2 =    0.0085             !
 ! D102  D(10,12,15,11)         36.2446         D2E/DX2 =    0.0093             !
 ! D103  D(10,12,15,20)        -82.7277         D2E/DX2 =    0.0211             !
 ! D104  D(10,12,15,21)        156.1562         D2E/DX2 =    0.0172             !
 ! D105  D(18,12,15,11)        155.6378         D2E/DX2 =    0.0178             !
 ! D106  D(18,12,15,20)         36.6655         D2E/DX2 =    0.0197             !
 ! D107  D(18,12,15,21)        -84.4505         D2E/DX2 =    0.0182             !
 ! D108  D(19,12,15,11)        -82.931          D2E/DX2 =    0.0223             !
 ! D109  D(19,12,15,20)        158.0968         D2E/DX2 =    0.0212             !
 ! D110  D(19,12,15,21)         36.9807         D2E/DX2 =    0.0198             !
 ! D111  D(10,12,18,32)        -67.409          D2E/DX2 =    0.0146             !
 ! D112  D(10,12,18,33)        173.7832         D2E/DX2 =    0.0148             !
 ! D113  D(10,12,18,34)         52.1607         D2E/DX2 =    0.0152             !
 ! D114  D(15,12,18,32)        174.639          D2E/DX2 =    0.014              !
 ! D115  D(15,12,18,33)         55.8311         D2E/DX2 =    0.0134             !
 ! D116  D(15,12,18,34)        -65.7914         D2E/DX2 =    0.0147             !
 ! D117  D(19,12,18,32)         50.2505         D2E/DX2 =    0.016              !
 ! D118  D(19,12,18,33)        -68.5573         D2E/DX2 =    0.016              !
 ! D119  D(19,12,18,34)        169.8202         D2E/DX2 =    0.0168             !
 ! D120  D(10,12,19,35)         50.5688         D2E/DX2 =    0.0136             !
 ! D121  D(10,12,19,36)        -68.6489         D2E/DX2 =    0.0137             !
 ! D122  D(10,12,19,37)        168.8781         D2E/DX2 =    0.0147             !
 ! D123  D(15,12,19,35)        168.5617         D2E/DX2 =    0.0135             !
 ! D124  D(15,12,19,36)         49.3441         D2E/DX2 =    0.0139             !
 ! D125  D(15,12,19,37)        -73.1289         D2E/DX2 =    0.0147             !
 ! D126  D(18,12,19,35)        -67.3636         D2E/DX2 =    0.0151             !
 ! D127  D(18,12,19,36)        173.4187         D2E/DX2 =    0.0156             !
 ! D128  D(18,12,19,37)         50.9457         D2E/DX2 =    0.0158             !
 ! D129  D(11,15,20,38)        -68.9109         D2E/DX2 =    0.0152             !
 ! D130  D(11,15,20,39)        169.7865         D2E/DX2 =    0.014              !
 ! D131  D(11,15,20,40)         51.1376         D2E/DX2 =    0.0147             !
 ! D132  D(12,15,20,38)         50.5355         D2E/DX2 =    0.0151             !
 ! D133  D(12,15,20,39)        -70.7671         D2E/DX2 =    0.0139             !
 ! D134  D(12,15,20,40)        170.584          D2E/DX2 =    0.0148             !
 ! D135  D(21,15,20,38)        173.8594         D2E/DX2 =    0.0166             !
 ! D136  D(21,15,20,39)         52.5568         D2E/DX2 =    0.0153             !
 ! D137  D(21,15,20,40)        -66.092          D2E/DX2 =    0.0159             !
 ! D138  D(11,15,21,41)         55.239          D2E/DX2 =    0.0152             !
 ! D139  D(11,15,21,42)        -64.5374         D2E/DX2 =    0.015              !
 ! D140  D(11,15,21,43)        176.3873         D2E/DX2 =    0.0147             !
 ! D141  D(12,15,21,41)        -64.9649         D2E/DX2 =    0.0146             !
 ! D142  D(12,15,21,42)        175.2587         D2E/DX2 =    0.0144             !
 ! D143  D(12,15,21,43)         56.1834         D2E/DX2 =    0.0137             !
 ! D144  D(20,15,21,41)        172.2814         D2E/DX2 =    0.0178             !
 ! D145  D(20,15,21,42)         52.5051         D2E/DX2 =    0.0173             !
 ! D146  D(20,15,21,43)        -66.5702         D2E/DX2 =    0.0171             !
 ! D147  D(5,22,26,24)           1.3069         D2E/DX2 =    0.0092             !
 ! D148  D(5,22,26,28)        -178.1005         D2E/DX2 =    0.0087             !
 ! D149  D(27,22,26,24)        178.5481         D2E/DX2 =    0.0091             !
 ! D150  D(27,22,26,28)         -0.8593         D2E/DX2 =    0.0095             !
 ! D151  D(5,23,25,24)           0.4531         D2E/DX2 =    0.0092             !
 ! D152  D(5,23,25,30)         179.6414         D2E/DX2 =    0.0085             !
 ! D153  D(31,23,25,24)       -178.376          D2E/DX2 =    0.0087             !
 ! D154  D(31,23,25,30)          0.8123         D2E/DX2 =    0.0092             !
 ! D155  D(26,24,25,23)         -1.0351         D2E/DX2 =    0.0094             !
 ! D156  D(26,24,25,30)        179.7793         D2E/DX2 =    0.0085             !
 ! D157  D(29,24,25,23)        179.0388         D2E/DX2 =    0.0088             !
 ! D158  D(29,24,25,30)         -0.1468         D2E/DX2 =    0.0092             !
 ! D159  D(25,24,26,22)          0.1624         D2E/DX2 =    0.0094             !
 ! D160  D(25,24,26,28)        179.5666         D2E/DX2 =    0.0087             !
 ! D161  D(29,24,26,22)       -179.9116         D2E/DX2 =    0.0088             !
 ! D162  D(29,24,26,28)         -0.5074         D2E/DX2 =    0.0093             !
 ! D163  D(8,44,45,47)          62.4244         D2E/DX2 =    0.0206             !
 ! D164  D(8,44,45,48)        -176.9188         D2E/DX2 =    0.0219             !
 ! D165  D(8,44,45,49)         -55.8685         D2E/DX2 =    0.0197             !
 ! D166  D(9,44,45,47)        -115.7734         D2E/DX2 =    0.0072             !
 ! D167  D(9,44,45,48)           4.8834         D2E/DX2 =    0.0092             !
 ! D168  D(9,44,45,49)         125.9337         D2E/DX2 =    0.0059             !
 ! D169  D(10,44,45,47)        -23.6389         D2E/DX2 =    0.0109             !
 ! D170  D(10,44,45,48)         97.0179         D2E/DX2 =    0.0123             !
 ! D171  D(10,44,45,49)       -141.9318         D2E/DX2 =    0.0081             !
 ! D172  D(46,44,45,47)        159.6472         D2E/DX2 =    0.0138             !
 ! D173  D(46,44,45,48)        -79.6961         D2E/DX2 =    0.0204             !
 ! D174  D(46,44,45,49)         41.3542         D2E/DX2 =    0.0119             !
 ! D175  D(8,44,46,50)        -106.7777         D2E/DX2 =    0.0185             !
 ! D176  D(8,44,46,51)          12.2106         D2E/DX2 =    0.0227             !
 ! D177  D(8,44,46,52)         133.9396         D2E/DX2 =    0.0172             !
 ! D178  D(9,44,46,50)          67.0846         D2E/DX2 =    0.0086             !
 ! D179  D(9,44,46,51)        -173.9271         D2E/DX2 =    0.0112             !
 ! D180  D(9,44,46,52)         -52.1981         D2E/DX2 =    0.007              !
 ! D181  D(11,44,46,50)        -16.8275         D2E/DX2 =    0.0114             !
 ! D182  D(11,44,46,51)        102.1607         D2E/DX2 =    0.0143             !
 ! D183  D(11,44,46,52)       -136.1103         D2E/DX2 =    0.0094             !
 ! D184  D(45,44,46,50)        156.5138         D2E/DX2 =    0.0144             !
 ! D185  D(45,44,46,51)        -84.498          D2E/DX2 =    0.0239             !
 ! D186  D(45,44,46,52)         37.231          D2E/DX2 =    0.012              !
 ! D187  D(44,45,47,83)        142.2482         D2E/DX2 =    0.0213             !
 ! D188  D(44,45,47,84)        -35.2846         D2E/DX2 =    0.0272             !
 ! D189  D(48,45,47,83)         10.342          D2E/DX2 =    0.0171             !
 ! D190  D(48,45,47,84)       -167.1908         D2E/DX2 =    0.0217             !
 ! D191  D(49,45,47,83)        -93.6244         D2E/DX2 =    0.0213             !
 ! D192  D(49,45,47,84)         88.8428         D2E/DX2 =    0.026              !
 ! D193  D(44,45,48,93)        167.3923         D2E/DX2 =    0.0157             !
 ! D194  D(44,45,48,94)        -12.7362         D2E/DX2 =    0.0144             !
 ! D195  D(47,45,48,93)        -66.1202         D2E/DX2 =    0.0256             !
 ! D196  D(47,45,48,94)        113.7513         D2E/DX2 =    0.0213             !
 ! D197  D(49,45,48,93)         40.1918         D2E/DX2 =    0.0244             !
 ! D198  D(49,45,48,94)       -139.9367         D2E/DX2 =    0.0181             !
 ! D199  D(44,45,49,53)        -72.9624         D2E/DX2 =    0.0242             !
 ! D200  D(44,45,49,54)         97.6331         D2E/DX2 =    0.0214             !
 ! D201  D(47,45,49,53)        163.3135         D2E/DX2 =    0.0337             !
 ! D202  D(47,45,49,54)        -26.091          D2E/DX2 =    0.0291             !
 ! D203  D(48,45,49,53)         59.2354         D2E/DX2 =    0.0329             !
 ! D204  D(48,45,49,54)       -130.1691         D2E/DX2 =    0.0272             !
 ! D205  D(44,46,50,103)       110.6724         D2E/DX2 =    0.0215             !
 ! D206  D(44,46,50,104)       -57.1362         D2E/DX2 =    0.0242             !
 ! D207  D(51,46,50,103)       -21.939          D2E/DX2 =    0.0215             !
 ! D208  D(51,46,50,104)       170.2524         D2E/DX2 =    0.0239             !
 ! D209  D(52,46,50,103)      -124.3981         D2E/DX2 =    0.0258             !
 ! D210  D(52,46,50,104)        67.7933         D2E/DX2 =    0.0285             !
 ! D211  D(44,46,51,113)      -175.5965         D2E/DX2 =    0.0148             !
 ! D212  D(44,46,51,114)         8.5142         D2E/DX2 =    0.0203             !
 ! D213  D(50,46,51,113)       -53.4527         D2E/DX2 =    0.0219             !
 ! D214  D(50,46,51,114)       130.6581         D2E/DX2 =    0.0238             !
 ! D215  D(52,46,51,113)        55.2548         D2E/DX2 =    0.0172             !
 ! D216  D(52,46,51,114)      -120.6345         D2E/DX2 =    0.0179             !
 ! D217  D(44,46,52,55)        -72.906          D2E/DX2 =    0.0231             !
 ! D218  D(44,46,52,56)        101.2958         D2E/DX2 =    0.0179             !
 ! D219  D(50,46,52,55)        166.6568         D2E/DX2 =    0.0336             !
 ! D220  D(50,46,52,56)        -19.1414         D2E/DX2 =    0.0269             !
 ! D221  D(51,46,52,55)         61.9507         D2E/DX2 =    0.0279             !
 ! D222  D(51,46,52,56)       -123.8475         D2E/DX2 =    0.0218             !
 ! D223  D(45,47,83,85)       -178.575          D2E/DX2 =    0.0064             !
 ! D224  D(45,47,83,86)          0.8224         D2E/DX2 =    0.0071             !
 ! D225  D(84,47,83,85)         -1.0762         D2E/DX2 =    0.0078             !
 ! D226  D(84,47,83,86)        178.3212         D2E/DX2 =    0.008              !
 ! D227  D(45,47,84,87)        179.2318         D2E/DX2 =    0.0061             !
 ! D228  D(45,47,84,88)          0.9575         D2E/DX2 =    0.0083             !
 ! D229  D(83,47,84,87)          1.5029         D2E/DX2 =    0.0076             !
 ! D230  D(83,47,84,88)       -176.7714         D2E/DX2 =    0.0107             !
 ! D231  D(45,48,93,95)        179.5589         D2E/DX2 =    0.0088             !
 ! D232  D(45,48,93,96)         -1.9437         D2E/DX2 =    0.0087             !
 ! D233  D(94,48,93,95)         -0.3154         D2E/DX2 =    0.0076             !
 ! D234  D(94,48,93,96)        178.182          D2E/DX2 =    0.0088             !
 ! D235  D(45,48,94,97)        179.7428         D2E/DX2 =    0.0083             !
 ! D236  D(45,48,94,98)          1.5018         D2E/DX2 =    0.009              !
 ! D237  D(93,48,94,97)         -0.3829         D2E/DX2 =    0.0077             !
 ! D238  D(93,48,94,98)       -178.6239         D2E/DX2 =    0.0081             !
 ! D239  D(45,49,53,55)        -11.1338         D2E/DX2 =    0.0164             !
 ! D240  D(45,49,53,57)        170.244          D2E/DX2 =    0.0206             !
 ! D241  D(54,49,53,55)        178.3244         D2E/DX2 =    0.0123             !
 ! D242  D(54,49,53,57)         -0.2979         D2E/DX2 =    0.0093             !
 ! D243  D(45,49,54,58)       -171.26           D2E/DX2 =    0.0131             !
 ! D244  D(45,49,54,59)          9.1288         D2E/DX2 =    0.0097             !
 ! D245  D(53,49,54,58)         -0.53           D2E/DX2 =    0.0085             !
 ! D246  D(53,49,54,59)        179.8587         D2E/DX2 =    0.007              !
 ! D247  D(46,50,103,105)     -169.031          D2E/DX2 =    0.0089             !
 ! D248  D(46,50,103,106)       10.2871         D2E/DX2 =    0.0088             !
 ! D249  D(104,50,103,105)      -1.0125         D2E/DX2 =    0.0078             !
 ! D250  D(104,50,103,106)     178.3056         D2E/DX2 =    0.0087             !
 ! D251  D(46,50,104,107)      170.0909         D2E/DX2 =    0.0081             !
 ! D252  D(46,50,104,108)       -7.2897         D2E/DX2 =    0.0085             !
 ! D253  D(103,50,104,107)       1.8343         D2E/DX2 =    0.0077             !
 ! D254  D(103,50,104,108)    -175.5463         D2E/DX2 =    0.009              !
 ! D255  D(46,51,113,115)     -177.2949         D2E/DX2 =    0.012              !
 ! D256  D(46,51,113,116)        2.6437         D2E/DX2 =    0.0097             !
 ! D257  D(114,51,113,115)      -1.4052         D2E/DX2 =    0.008              !
 ! D258  D(114,51,113,116)     178.5334         D2E/DX2 =    0.0077             !
 ! D259  D(46,51,114,117)      176.7833         D2E/DX2 =    0.0127             !
 ! D260  D(46,51,114,118)       -0.7139         D2E/DX2 =    0.0112             !
 ! D261  D(113,51,114,117)       0.7687         D2E/DX2 =    0.0082             !
 ! D262  D(113,51,114,118)    -176.7284         D2E/DX2 =    0.0097             !
 ! D263  D(46,52,55,53)         -7.8313         D2E/DX2 =    0.0158             !
 ! D264  D(46,52,55,60)        173.194          D2E/DX2 =    0.0195             !
 ! D265  D(56,52,55,53)        177.9004         D2E/DX2 =    0.0124             !
 ! D266  D(56,52,55,60)         -1.0743         D2E/DX2 =    0.0098             !
 ! D267  D(46,52,56,61)       -171.8437         D2E/DX2 =    0.0113             !
 ! D268  D(46,52,56,62)          8.6282         D2E/DX2 =    0.0096             !
 ! D269  D(55,52,56,61)          2.4055         D2E/DX2 =    0.0078             !
 ! D270  D(55,52,56,62)       -177.1225         D2E/DX2 =    0.0073             !
 ! D271  D(49,53,55,52)         73.1755         D2E/DX2 =    0.0261             !
 ! D272  D(49,53,55,60)       -107.8266         D2E/DX2 =    0.024              !
 ! D273  D(57,53,55,52)       -108.1778         D2E/DX2 =    0.0262             !
 ! D274  D(57,53,55,60)         70.8201         D2E/DX2 =    0.0235             !
 ! D275  D(49,53,57,63)          0.9898         D2E/DX2 =    0.007              !
 ! D276  D(49,53,57,64)       -178.1409         D2E/DX2 =    0.0098             !
 ! D277  D(55,53,57,63)       -177.6938         D2E/DX2 =    0.0098             !
 ! D278  D(55,53,57,64)          3.1754         D2E/DX2 =    0.0106             !
 ! D279  D(49,54,58,63)          0.6524         D2E/DX2 =    0.0081             !
 ! D280  D(49,54,58,65)       -179.495          D2E/DX2 =    0.0086             !
 ! D281  D(59,54,58,63)       -179.7362         D2E/DX2 =    0.01               !
 ! D282  D(59,54,58,65)          0.1164         D2E/DX2 =    0.0096             !
 ! D283  D(52,55,60,66)         -1.3405         D2E/DX2 =    0.0078             !
 ! D284  D(52,55,60,67)        179.7128         D2E/DX2 =    0.0122             !
 ! D285  D(53,55,60,66)        179.6288         D2E/DX2 =    0.009              !
 ! D286  D(53,55,60,67)          0.6821         D2E/DX2 =    0.0117             !
 ! D287  D(52,56,61,66)         -1.2339         D2E/DX2 =    0.0081             !
 ! D288  D(52,56,61,68)        179.4971         D2E/DX2 =    0.0079             !
 ! D289  D(62,56,61,66)        178.2986         D2E/DX2 =    0.0103             !
 ! D290  D(62,56,61,68)         -0.9705         D2E/DX2 =    0.0096             !
 ! D291  D(53,57,63,58)         -0.8689         D2E/DX2 =    0.0057             !
 ! D292  D(53,57,63,69)        179.695          D2E/DX2 =    0.0057             !
 ! D293  D(64,57,63,58)        178.3003         D2E/DX2 =    0.0057             !
 ! D294  D(64,57,63,69)         -1.1358         D2E/DX2 =    0.0058             !
 ! D295  D(53,57,64,70)       -179.6851         D2E/DX2 =    0.0069             !
 ! D296  D(53,57,64,71)          0.9781         D2E/DX2 =    0.0079             !
 ! D297  D(63,57,64,70)          1.1692         D2E/DX2 =    0.0071             !
 ! D298  D(63,57,64,71)       -178.1675         D2E/DX2 =    0.0074             !
 ! D299  D(54,58,63,57)          0.0577         D2E/DX2 =    0.0076             !
 ! D300  D(54,58,63,69)        179.4846         D2E/DX2 =    0.0075             !
 ! D301  D(65,58,63,57)       -179.7967         D2E/DX2 =    0.0067             !
 ! D302  D(65,58,63,69)         -0.3698         D2E/DX2 =    0.0075             !
 ! D303  D(55,60,66,61)          2.4928         D2E/DX2 =    0.0052             !
 ! D304  D(55,60,66,72)       -178.443          D2E/DX2 =    0.0047             !
 ! D305  D(67,60,66,61)       -178.5121         D2E/DX2 =    0.0063             !
 ! D306  D(67,60,66,72)          0.5522         D2E/DX2 =    0.0061             !
 ! D307  D(55,60,67,73)        179.0034         D2E/DX2 =    0.0064             !
 ! D308  D(55,60,67,74)         -0.1104         D2E/DX2 =    0.0074             !
 ! D309  D(66,60,67,73)          0.0366         D2E/DX2 =    0.0072             !
 ! D310  D(66,60,67,74)       -179.0772         D2E/DX2 =    0.0077             !
 ! D311  D(56,61,66,60)         -1.2283         D2E/DX2 =    0.0077             !
 ! D312  D(56,61,66,72)        179.722          D2E/DX2 =    0.0073             !
 ! D313  D(68,61,66,60)        178.0483         D2E/DX2 =    0.0067             !
 ! D314  D(68,61,66,72)         -1.0014         D2E/DX2 =    0.0073             !
 ! D315  D(57,63,69,75)          0.3862         D2E/DX2 =    0.0071             !
 ! D316  D(57,63,69,76)       -179.9355         D2E/DX2 =    0.0069             !
 ! D317  D(58,63,69,75)       -179.036          D2E/DX2 =    0.0065             !
 ! D318  D(58,63,69,76)          0.6423         D2E/DX2 =    0.0075             !
 ! D319  D(57,64,70,75)         -0.4333         D2E/DX2 =    0.0085             !
 ! D320  D(57,64,70,77)       -179.6858         D2E/DX2 =    0.0086             !
 ! D321  D(71,64,70,75)        178.9012         D2E/DX2 =    0.0084             !
 ! D322  D(71,64,70,77)         -0.3513         D2E/DX2 =    0.0094             !
 ! D323  D(60,66,72,78)         -0.6692         D2E/DX2 =    0.0072             !
 ! D324  D(60,66,72,79)        179.5988         D2E/DX2 =    0.0069             !
 ! D325  D(61,66,72,78)        178.3713         D2E/DX2 =    0.0069             !
 ! D326  D(61,66,72,79)         -1.3607         D2E/DX2 =    0.0076             !
 ! D327  D(60,67,73,78)         -0.5265         D2E/DX2 =    0.0087             !
 ! D328  D(60,67,73,80)       -179.7461         D2E/DX2 =    0.0088             !
 ! D329  D(74,67,73,78)        178.5861         D2E/DX2 =    0.0084             !
 ! D330  D(74,67,73,80)         -0.6334         D2E/DX2 =    0.0096             !
 ! D331  D(63,69,75,70)          0.3766         D2E/DX2 =    0.0087             !
 ! D332  D(63,69,75,81)        179.9758         D2E/DX2 =    0.0087             !
 ! D333  D(76,69,75,70)       -179.295          D2E/DX2 =    0.0085             !
 ! D334  D(76,69,75,81)          0.3042         D2E/DX2 =    0.0094             !
 ! D335  D(64,70,75,69)         -0.3594         D2E/DX2 =    0.0089             !
 ! D336  D(64,70,75,81)       -179.9607         D2E/DX2 =    0.0079             !
 ! D337  D(77,70,75,69)        178.8936         D2E/DX2 =    0.008              !
 ! D338  D(77,70,75,81)         -0.7077         D2E/DX2 =    0.0087             !
 ! D339  D(66,72,78,73)          0.1823         D2E/DX2 =    0.0086             !
 ! D340  D(66,72,78,82)       -179.8178         D2E/DX2 =    0.0087             !
 ! D341  D(79,72,78,73)        179.9087         D2E/DX2 =    0.0085             !
 ! D342  D(79,72,78,82)         -0.0914         D2E/DX2 =    0.0094             !
 ! D343  D(67,73,78,72)          0.4177         D2E/DX2 =    0.009              !
 ! D344  D(67,73,78,82)       -179.5822         D2E/DX2 =    0.0079             !
 ! D345  D(80,73,78,72)        179.6374         D2E/DX2 =    0.0081             !
 ! D346  D(80,73,78,82)         -0.3626         D2E/DX2 =    0.0087             !
 ! D347  D(47,83,85,89)          0.0005         D2E/DX2 =    0.0092             !
 ! D348  D(47,83,85,90)        179.7537         D2E/DX2 =    0.0085             !
 ! D349  D(86,83,85,89)       -179.4081         D2E/DX2 =    0.0086             !
 ! D350  D(86,83,85,90)          0.3451         D2E/DX2 =    0.0094             !
 ! D351  D(47,84,87,89)         -0.8435         D2E/DX2 =    0.009              !
 ! D352  D(47,84,87,91)       -179.9977         D2E/DX2 =    0.0085             !
 ! D353  D(88,84,87,89)        177.4214         D2E/DX2 =    0.0103             !
 ! D354  D(88,84,87,91)         -1.7327         D2E/DX2 =    0.0105             !
 ! D355  D(83,85,89,87)          0.6887         D2E/DX2 =    0.0092             !
 ! D356  D(83,85,89,92)        179.9921         D2E/DX2 =    0.0088             !
 ! D357  D(90,85,89,87)       -179.0631         D2E/DX2 =    0.0086             !
 ! D358  D(90,85,89,92)          0.2403         D2E/DX2 =    0.0094             !
 ! D359  D(84,87,89,85)         -0.2732         D2E/DX2 =    0.0093             !
 ! D360  D(84,87,89,92)       -179.5755         D2E/DX2 =    0.0088             !
 ! D361  D(91,87,89,85)        178.8694         D2E/DX2 =    0.0089             !
 ! D362  D(91,87,89,92)         -0.4329         D2E/DX2 =    0.0095             !
 ! D363  D(48,93,95,99)          0.806          D2E/DX2 =    0.0093             !
 ! D364  D(48,93,95,100)       179.0676         D2E/DX2 =    0.0084             !
 ! D365  D(96,93,95,99)       -177.7001         D2E/DX2 =    0.009              !
 ! D366  D(96,93,95,100)         0.5615         D2E/DX2 =    0.0097             !
 ! D367  D(48,94,97,99)          0.5924         D2E/DX2 =    0.0093             !
 ! D368  D(48,94,97,101)      -178.8609         D2E/DX2 =    0.0086             !
 ! D369  D(98,94,97,99)        178.7975         D2E/DX2 =    0.009              !
 ! D370  D(98,94,97,101)        -0.6557         D2E/DX2 =    0.0097             !
 ! D371  D(93,95,99,97)         -0.5924         D2E/DX2 =    0.0092             !
 ! D372  D(93,95,99,102)       178.9167         D2E/DX2 =    0.0084             !
 ! D373  D(100,95,99,97)      -178.8438         D2E/DX2 =    0.0085             !
 ! D374  D(100,95,99,102)        0.6653         D2E/DX2 =    0.0091             !
 ! D375  D(94,97,99,95)         -0.0991         D2E/DX2 =    0.009              !
 ! D376  D(94,97,99,102)      -179.6073         D2E/DX2 =    0.0084             !
 ! D377  D(101,97,99,95)       179.3521         D2E/DX2 =    0.0087             !
 ! D378  D(101,97,99,102)       -0.1561         D2E/DX2 =    0.0092             !
 ! D379  D(50,103,105,109)      -0.2446         D2E/DX2 =    0.0092             !
 ! D380  D(50,103,105,110)     179.6616         D2E/DX2 =    0.009              !
 ! D381  D(106,103,105,109)   -179.572          D2E/DX2 =    0.0092             !
 ! D382  D(106,103,105,110)      0.3343         D2E/DX2 =    0.0097             !
 ! D383  D(50,104,107,109)      -1.4008         D2E/DX2 =    0.0092             !
 ! D384  D(50,104,107,111)     179.6474         D2E/DX2 =    0.0085             !
 ! D385  D(108,104,107,109)    175.9806         D2E/DX2 =    0.0095             !
 ! D386  D(108,104,107,111)     -2.9712         D2E/DX2 =    0.0098             !
 ! D387  D(103,105,109,107)      0.7166         D2E/DX2 =    0.0093             !
 ! D388  D(103,105,109,112)    179.9942         D2E/DX2 =    0.0087             !
 ! D389  D(110,105,109,107)   -179.189          D2E/DX2 =    0.0091             !
 ! D390  D(110,105,109,112)      0.0887         D2E/DX2 =    0.0096             !
 ! D391  D(104,107,109,105)      0.0959         D2E/DX2 =    0.0094             !
 ! D392  D(104,107,109,112)   -179.1826         D2E/DX2 =    0.0087             !
 ! D393  D(111,107,109,105)    179.0417         D2E/DX2 =    0.0086             !
 ! D394  D(111,107,109,112)     -0.2368         D2E/DX2 =    0.0093             !
 ! D395  D(51,113,115,119)       1.0879         D2E/DX2 =    0.0091             !
 ! D396  D(51,113,115,120)    -179.9482         D2E/DX2 =    0.0087             !
 ! D397  D(116,113,115,119)   -178.8509         D2E/DX2 =    0.0091             !
 ! D398  D(116,113,115,120)      0.113          D2E/DX2 =    0.0095             !
 ! D399  D(51,114,117,119)       0.187          D2E/DX2 =    0.0094             !
 ! D400  D(51,114,117,121)    -178.4229         D2E/DX2 =    0.0088             !
 ! D401  D(118,114,117,119)    177.6041         D2E/DX2 =    0.0104             !
 ! D402  D(118,114,117,121)     -1.0059         D2E/DX2 =    0.0104             !
 ! D403  D(51,114,118,6)      -146.5427         D2E/DX2 =    0.0031             !
 ! D404  D(117,114,118,6)       35.9683         D2E/DX2 =    0.0031             !
 ! D405  D(113,115,119,117)     -0.1157         D2E/DX2 =    0.0095             !
 ! D406  D(113,115,119,122)    178.7921         D2E/DX2 =    0.0086             !
 ! D407  D(120,115,119,117)   -179.0772         D2E/DX2 =    0.0086             !
 ! D408  D(120,115,119,122)     -0.1694         D2E/DX2 =    0.0092             !
 ! D409  D(114,117,119,115)     -0.519          D2E/DX2 =    0.0095             !
 ! D410  D(114,117,119,122)   -179.425          D2E/DX2 =    0.0086             !
 ! D411  D(121,117,119,115)    178.0845         D2E/DX2 =    0.0089             !
 ! D412  D(121,117,119,122)     -0.8215         D2E/DX2 =    0.0093             !
 --------------------------------------------------------------------------------
 Trust Radius=3.00D-01 FncErr=1.00D-07 GrdErr=1.00D-06
 Number of steps in this run=    732 maximum allowed number of steps=    732.
 Search for a saddle point of order  1.
 GradGradGradGradGradGradGradGradGradGradGradGradGradGradGradGradGradGrad

 Stoichiometry    C58H58N2OP2Ru
 Framework group  C1[X(C58H58N2OP2Ru)]
 Deg. of freedom   360
 Full point group                 C1      NOp   1
 Largest Abelian subgroup         C1      NOp   1
 Largest concise Abelian subgroup C1      NOp   1
                         Standard orientation:                         
 ---------------------------------------------------------------------
 Center     Atomic      Atomic             Coordinates (Angstroms)
 Number     Number       Type             X           Y           Z
 ---------------------------------------------------------------------
      1          1           0       -2.872935   -0.586097   -4.437634
      2          6           0       -2.261003   -0.490595   -3.529973
      3          6           0       -3.190810   -0.015665   -2.424670
      4          8           0       -3.646753    1.142571   -2.458638
      5          6           0       -4.019238   -1.109851   -1.777373
      6          1           0       -1.827081   -1.468203   -3.317337
      7          1           0       -1.467932    0.233048   -3.725571
      8          1           0       -1.806827    0.039100   -1.150908
      9          1           0       -0.692764    1.262522    1.843272
     10          7           0       -2.480356    2.365571    0.028060
     11          7           0       -3.024917    0.162734    1.376035
     12          6           0       -3.426775    2.622429    1.147056
     13          1           0       -2.006546    3.236963   -0.203741
     14          1           0       -3.006704    2.102654   -0.814813
     15          6           0       -4.066460    1.236078    1.523682
     16          1           0       -3.443332   -0.639221    0.907744
     17          1           0       -2.757927   -0.168279    2.299111
     18          6           0       -4.481897    3.643299    0.689463
     19          6           0       -2.651863    3.252144    2.311064
     20          6           0       -5.235510    0.897453    0.592018
     21          6           0       -4.582658    1.214765    2.967197
     22          6           0       -3.496797   -2.122865   -0.970769
     23          6           0       -5.388465   -1.106788   -2.055513
     24          6           0       -5.701495   -3.073746   -0.693523
     25          6           0       -6.225092   -2.083822   -1.522161
     26          6           0       -4.333928   -3.090712   -0.421201
     27          1           0       -2.436734   -2.119577   -0.742008
[...]
 Alpha virt. eigenvalues --    0.93764   0.93798   0.93900   0.94088   0.94172
 Alpha virt. eigenvalues --    0.94261   0.94523   0.94600   0.94752   0.94835
 Alpha virt. eigenvalues --    0.94988   0.95084   0.95353   0.95525   0.95558
 Alpha virt. eigenvalues --    0.95710   0.95861   0.96046   0.96230   0.96598
 Alpha virt. eigenvalues --    0.96714   0.97097   0.97278   0.97451   0.97639
 Alpha virt. eigenvalues --    0.97822   0.98091   0.98527   0.98570   0.98815
 Alpha virt. eigenvalues --    0.99117   0.99512   0.99612   0.99844   1.00073
 Alpha virt. eigenvalues --    1.00388   1.00508   1.00570   1.01196   1.01382
 Alpha virt. eigenvalues --    1.01656   1.01757   1.01789   1.02031   1.02428
 Alpha virt. eigenvalues --    1.02696   1.02814   1.03345   1.03476   1.03673
 Alpha virt. eigenvalues --    1.03784   1.04046   1.04413   1.04667   1.04757
 Alpha virt. eigenvalues --    1.04937   1.05182   1.05441   1.05514   1.06045
 Alpha virt. eigenvalues --    1.06319   1.06661   1.06944   1.07157   1.07466
 Alpha virt. eigenvalues --    1.07907   1.08136   1.08622   1.08690   1.08976
 Alpha virt. eigenvalues --    1.09270   1.09678   1.09867   1.10494   1.10586
 Alpha virt. eigenvalues --    1.10925   1.11104   1.11329   1.11595   1.11744
 Alpha virt. eigenvalues --    1.12176   1.12706   1.12932   1.13135   1.13673
 Alpha virt. eigenvalues --    1.13920   1.14237   1.14384   1.14493   1.15050
 Alpha virt. eigenvalues --    1.15444   1.15806   1.16236   1.16897   1.17312
 Alpha virt. eigenvalues --    1.17552   1.17959   1.18289   1.18619   1.18743
 Alpha virt. eigenvalues --    1.19537   1.19876   1.20504   1.20848   1.21008
 Alpha virt. eigenvalues --    1.21496   1.21574   1.21823   1.22025   1.22628
 Alpha virt. eigenvalues --    1.22845   1.23594   1.23901   1.24200   1.24855
 Alpha virt. eigenvalues --    1.25143   1.25762   1.25900   1.26430   1.26602
 Alpha virt. eigenvalues --    1.26951   1.27316   1.27677   1.28075   1.28555
 Alpha virt. eigenvalues --    1.29068   1.29637   1.30063   1.30519   1.31022
 Alpha virt. eigenvalues --    1.31147   1.31874   1.32055   1.32284   1.32880
 Alpha virt. eigenvalues --    1.33213   1.33542   1.33780   1.34377   1.34435
 Alpha virt. eigenvalues --    1.34757   1.35127   1.35236   1.35632   1.36070
 Alpha virt. eigenvalues --    1.36227   1.36640   1.37380   1.37930   1.38269
 Alpha virt. eigenvalues --    1.38347   1.39293   1.40009   1.40290   1.40469
 Alpha virt. eigenvalues --    1.40852   1.41905   1.42328   1.43300   1.43644
 Alpha virt. eigenvalues --    1.44152   1.44462   1.45326   1.45799   1.46268
 Alpha virt. eigenvalues --    1.47068   1.47923   1.48368   1.48475   1.49369
 Alpha virt. eigenvalues --    1.49526   1.50305   1.50738   1.50945   1.51422
 Alpha virt. eigenvalues --    1.51857   1.52047   1.52778   1.52901   1.53351
 Alpha virt. eigenvalues --    1.53659   1.53806   1.53998   1.54392   1.54815
 Alpha virt. eigenvalues --    1.55070   1.55278   1.55423   1.55702   1.56032
 Alpha virt. eigenvalues --    1.56429   1.56615   1.56739   1.56967   1.57214
 Alpha virt. eigenvalues --    1.57387   1.57623   1.57776   1.57859   1.57981
 Alpha virt. eigenvalues --    1.58236   1.58527   1.58646   1.58773   1.58881
 Alpha virt. eigenvalues --    1.59240   1.59647   1.59794   1.59897   1.60017
 Alpha virt. eigenvalues --    1.60177   1.60577   1.60890   1.61168   1.61672
 Alpha virt. eigenvalues --    1.62248   1.62751   1.63043   1.63397   1.64060
 Alpha virt. eigenvalues --    1.64551   1.65021   1.65466   1.66240   1.67354
 Alpha virt. eigenvalues --    1.68211   1.68680   1.69254   1.70359   1.70921
 Alpha virt. eigenvalues --    1.71075   1.72599   1.73821   1.73852   1.75042
 Alpha virt. eigenvalues --    1.75524   1.76962   1.78181   1.79097   1.79401
 Alpha virt. eigenvalues --    1.80253   1.81445   1.82969   1.84061   1.84747
 Alpha virt. eigenvalues --    1.85406   1.85922   1.86213   1.87100   1.87605
 Alpha virt. eigenvalues --    1.88403   1.89035   1.89421   1.89505   1.89672
 Alpha virt. eigenvalues --    1.90394   1.90841   1.91450   1.91614   1.91925
 Alpha virt. eigenvalues --    1.92611   1.92726   1.93320   1.93643   1.93887
 Alpha virt. eigenvalues --    1.94329   1.94566   1.95114   1.95614   1.96270
 Alpha virt. eigenvalues --    1.96760   1.96801   1.97302   1.97536   1.97950
 Alpha virt. eigenvalues --    1.98695   1.99020   1.99559   1.99856   2.00694
 Alpha virt. eigenvalues --    2.00766   2.00928   2.01146   2.01417   2.01569
 Alpha virt. eigenvalues --    2.02147   2.02223   2.02473   2.02750   2.02960
 Alpha virt. eigenvalues --    2.03410   2.03655   2.04492   2.05272   2.05539
 Alpha virt. eigenvalues --    2.06295   2.06367   2.07190   2.07632   2.08134
 Alpha virt. eigenvalues --    2.08505   2.08824   2.09401   2.09759   2.10322
 Alpha virt. eigenvalues --    2.10633   2.10988   2.11707   2.12592   2.12770
 Alpha virt. eigenvalues --    2.13454   2.13819   2.14076   2.14426   2.14883
 Alpha virt. eigenvalues --    2.15811   2.16006   2.16283   2.16626   2.17079
 Alpha virt. eigenvalues --    2.17262   2.17890   2.18722   2.19489   2.20118
 Alpha virt. eigenvalues --    2.20498   2.20821   2.20973   2.21727   2.22046
 Alpha virt. eigenvalues --    2.22486   2.22739   2.23346   2.23972   2.24131
 Alpha virt. eigenvalues --    2.24270   2.24545   2.24646   2.24908   2.25019
 Alpha virt. eigenvalues --    2.25103   2.25850   2.25924   2.26109   2.26235
 Alpha virt. eigenvalues --    2.26339   2.26602   2.26752   2.26898   2.27058
 Alpha virt. eigenvalues --    2.27834   2.27937   2.28170   2.28622   2.28863
 Alpha virt. eigenvalues --    2.29367   2.29827   2.30206   2.30295   2.30564
 Alpha virt. eigenvalues --    2.30953   2.31266   2.31597   2.31756   2.32493
 Alpha virt. eigenvalues --    2.33068   2.33687   2.33891   2.34611   2.35709
 Alpha virt. eigenvalues --    2.36434   2.36643   2.37103   2.37390   2.37850
 Alpha virt. eigenvalues --    2.38031   2.38146   2.38634   2.38747   2.38957
 Alpha virt. eigenvalues --    2.39748   2.39937   2.40030   2.40259   2.40468
 Alpha virt. eigenvalues --    2.41065   2.41097   2.41463   2.41666   2.42171
 Alpha virt. eigenvalues --    2.42270   2.42547   2.42719   2.42935   2.43181
 Alpha virt. eigenvalues --    2.43795   2.43892   2.44202   2.44335   2.44616
 Alpha virt. eigenvalues --    2.45368   2.45419   2.45844   2.47044   2.48713
 Alpha virt. eigenvalues --    2.49550   2.50389   2.51830   2.52810   2.52965
 Alpha virt. eigenvalues --    2.54963   2.56162   2.56403   2.57583   2.62934
 Alpha virt. eigenvalues --    2.63576   2.65380   2.65976   2.66303   2.66678
 Alpha virt. eigenvalues --    2.67586   2.67771   2.68458   2.69010   2.69118
 Alpha virt. eigenvalues --    2.69350   2.70399   2.70730   2.70925   2.71576
 Alpha virt. eigenvalues --    2.71857   2.73039   2.73231   2.73481   2.73745
 Alpha virt. eigenvalues --    2.73884   2.74341   2.74552   2.74778   2.74908
 Alpha virt. eigenvalues --    2.75246   2.75669   2.76083   2.76571   2.76882
 Alpha virt. eigenvalues --    2.77516   2.77878   2.78166   2.78514   2.78995
 Alpha virt. eigenvalues --    2.79103   2.80149   2.80600   2.81162   2.82072
 Alpha virt. eigenvalues --    2.82332   2.82621   2.82845   2.83986   2.84958
 Alpha virt. eigenvalues --    2.85342   2.85504   2.86400   2.86501   2.87077
 Alpha virt. eigenvalues --    2.87092   2.87401   2.87653   2.87935   2.88691
 Alpha virt. eigenvalues --    2.88989   2.89154   2.89665   2.90025   2.90813
 Alpha virt. eigenvalues --    2.91200   2.91545   2.91977   2.92828   2.93491
 Alpha virt. eigenvalues --    2.94770   2.95388   2.96487   2.97444   2.99689
 Alpha virt. eigenvalues --    3.00833   3.01444   3.03121   3.03706   3.04742
 Alpha virt. eigenvalues --    3.07331   3.08879   3.10560   3.14534   3.14965
 Alpha virt. eigenvalues --    3.15491   3.16017   3.17029   3.19812   3.21765
 Alpha virt. eigenvalues --    3.22628   3.27200   3.44340   3.47436   3.48461
 Alpha virt. eigenvalues --    3.49080   3.50715   3.50832   3.52193   3.56416
 Alpha virt. eigenvalues --    3.59203  34.92808  35.14542  35.30317  46.40669
          Condensed to atoms (all electrons):
 Mulliken charges:
               1
     1  H    0.192967
     2  C   -0.557816
     3  C    0.380679
     4  O   -0.528538
     5  C    0.060395
     6  H    0.188342
     7  H    0.196571
     8  H   -0.188054
     9  H   -0.034398
    10  N   -0.844330
    11  N   -0.859121
    12  C    0.208618
    13  H    0.420072
    14  H    0.454437
    15  C    0.231626
    16  H    0.434396
    17  H    0.438174
    18  C   -0.529275
    19  C   -0.535706
    20  C   -0.559914
    21  C   -0.549650
    22  C   -0.208735
    23  C   -0.203037
    24  C   -0.181260
    25  C   -0.181538
    26  C   -0.194834
    27  H    0.218811
    28  H    0.183081
    29  H    0.185197
    30  H    0.184897
    31  H    0.185209
    32  H    0.182307
    33  H    0.175623
    34  H    0.187702
    35  H    0.181137
    36  H    0.233378
    37  H    0.174963
    38  H    0.209814
    39  H    0.176892
    40  H    0.175509
    41  H    0.191276
    42  H    0.188543
    43  H    0.180169
    44  Ru  -0.751141
    45  P    0.600789
    46  P    0.615695
    47  C   -0.135879
    48  C   -0.144670
    49  C   -0.125338
    50  C   -0.125636
    51  C   -0.161419
    52  C   -0.119239
    53  C   -0.072199
    54  C   -0.223775
    55  C   -0.068439
    56  C   -0.227495
    57  C    0.101457
    58  C   -0.218326
    59  H    0.183831
    60  C    0.107329
    61  C   -0.216001
    62  H    0.180951
    63  C    0.094249
    64  C   -0.200171
    65  H    0.184460
    66  C    0.094019
    67  C   -0.210571
    68  H    0.184884
    69  C   -0.228681
    70  C   -0.186072
    71  H    0.178740
    72  C   -0.226558
    73  C   -0.185876
    74  H    0.180965
    75  C   -0.188518
    76  H    0.181729
    77  H    0.179395
    78  C   -0.188765
    79  H    0.183123
    80  H    0.180932
    81  H    0.181835
    82  H    0.183095
    83  C   -0.204490
    84  C   -0.206052
    85  C   -0.175148
    86  H    0.183826
    87  C   -0.183810
    88  H    0.236781
    89  C   -0.184629
    90  H    0.184737
    91  H    0.187181
    92  H    0.186670
    93  C   -0.197823
    94  C   -0.164588
    95  C   -0.159630
    96  H    0.181556
    97  C   -0.188413
    98  H    0.217739
    99  C   -0.180291
   100  H    0.176496
   101  H    0.178225
   102  H    0.179116
   103  C   -0.201694
   104  C   -0.244102
   105  C   -0.171970
   106  H    0.189555
   107  C   -0.172857
   108  H    0.228014
   109  C   -0.182476
   110  H    0.189089
   111  H    0.192762
   112  H    0.190757
   113  C   -0.190052
   114  C   -0.172414
   115  C   -0.168597
   116  H    0.183972
   117  C   -0.175883
   118  H    0.221591
   119  C   -0.175786
   120  H    0.179228
   121  H    0.176571
   122  H    0.179549
 Sum of Mulliken charges =   0.00000
 Mulliken charges with hydrogens summed into heavy atoms:
               1
     2  C    0.020063
     3  C    0.380679
     4  O   -0.528538
     5  C    0.060395
    10  N    0.030179
    11  N    0.013449
    12  C    0.208618
    15  C    0.231626
    18  C    0.016358
    19  C    0.053772
    20  C    0.002302
    21  C    0.010338
    22  C    0.010076
    23  C   -0.017828
    24  C    0.003937
    25  C    0.003359
    26  C   -0.011753
    44  Ru  -0.973594
    45  P    0.600789
    46  P    0.615695
    47  C   -0.135879
    48  C   -0.144670
    49  C   -0.125338
    50  C   -0.125636
    51  C   -0.161419
    52  C   -0.119239
    53  C   -0.072199
    54  C   -0.039944
    55  C   -0.068439
    56  C   -0.046544
    57  C    0.101457
    58  C   -0.033865
    60  C    0.107329
    61  C   -0.031117
    63  C    0.094249
    64  C   -0.021431
    66  C    0.094019
    67  C   -0.029606
    69  C   -0.046952
    70  C   -0.006677
    72  C   -0.043435
    73  C   -0.004944
    75  C   -0.006683
    78  C   -0.005669
    83  C   -0.020665
    84  C    0.030730
    85  C    0.009589
    87  C    0.003371
    89  C    0.002041
    93  C   -0.016267
    94  C    0.053150
    95  C    0.016866
    97  C   -0.010188
    99  C   -0.001175
   103  C   -0.012139
   104  C   -0.016088
   105  C    0.017119
   107  C    0.019905
   109  C    0.008281
   113  C   -0.006081
   114  C    0.049177
   115  C    0.010632
   117  C    0.000688
   119  C    0.003763
 Electronic spatial extent (au):  <R**2>=          37832.5997
 Charge=              0.0000 electrons
 Dipole moment (field-independent basis, Debye):
    X=             -0.8091    Y=             -1.8227    Z=              3.4009  Tot=              3.9424
 Quadrupole moment (field-independent basis, Debye-Ang):
   XX=           -365.0837   YY=           -373.7981   ZZ=           -368.8792
   XY=              5.9075   XZ=            -15.5305   YZ=              0.8140
 Traceless Quadrupole moment (field-independent basis, Debye-Ang):
   XX=              4.1700   YY=             -4.5444   ZZ=              0.3745
   XY=              5.9075   XZ=            -15.5305   YZ=              0.8140
 Octapole moment (field-independent basis, Debye-Ang**2):
  XXX=           -105.2496  YYY=              4.4627  ZZZ=             57.9462  XYY=            -23.4387
  XXY=             16.7689  XXZ=             99.3294  XZZ=            -17.3397  YZZ=              3.8284
  YYZ=            -22.4113  XYZ=             39.3252
 Hexadecapole moment (field-independent basis, Debye-Ang**3):
 XXXX=         -23258.9945 YYYY=         -14303.8272 ZZZZ=         -11041.1045 XXXY=            478.4100
 XXXZ=             93.1676 YYYX=           -201.3243 YYYZ=           -202.1699 ZZZX=           -129.7146
 ZZZY=             70.6893 XXYY=          -6194.9837 XXZZ=          -5816.3756 YYZZ=          -4196.5013
 XXYZ=            160.8400 YYXZ=           -280.8856 ZZXY=            -18.2160
 N-N= 1.164550192140D+04 E-N=-3.075654176936D+04  KE= 3.128622484322D+03
 1\1\GINC-N220\FTS\RwB97XD\GenECP\C58H58N2O1P2Ru1\VMI38398\20-Dec-2018\
 0\\#wb97xd/genecp opt=(noeigen,readfc,ts,maxcyc=1000) scrf=(pcm,solven
 t=2-propanol)\\step 3 (attempt 2) cycle 1\\0,1\H,-2.8723576111,-0.5857
 064147,-4.4377772327\C,-2.2604912424,-0.4900243983,-3.5300894941\C,-3.
 1904779047,-0.0154551226,-2.424793769\O,-3.6465391054,1.142750388,-2.4
 585020187\C,-4.0188935804,-1.1098833214,-1.7778762407\H,-1.8262730825,
 -1.4675020527,-3.3174695918\H,-1.4676507723,0.2338877796,-3.7256210355
 \H,-1.8066150863,0.0392545205,-1.1508347022\H,-0.6928524106,1.26271400
 89,1.8434561407\N,-2.480540131,2.3655235521,0.0283380586\N,-3.02479061
 77,0.1625763347,1.3764427239\C,-3.4272538929,2.6220478428,1.1471728753
 \H,-2.006805362,3.2370310241,-0.2031856527\H,-3.0066458943,2.102661891
 5,-0.8147154825\C,-4.0667706135,1.2355640467,1.5234716218\H,-3.4429644
 668,-0.6399525565,0.9089119832\H,-2.7574624967,-0.1675374551,2.2997411
 833\C,-4.4824491193,3.6427995189,0.6894951963\C,-2.6527000538,3.251674
 3751,2.3114654533\C,-5.2352114404,0.8966068326,0.5911821109\C,-4.58378
 76494,1.2141146412,2.9667011341\C,-3.4966238618,-2.1225905453,-0.97078
 93312\C,-5.387974556,-1.1072219607,-2.0567464594\C,-5.7012309453,-3.07
 39560677,-0.6944823161\C,-6.2246366445,-2.0843530372,-1.5236293413\C,-
 4.3338034929,-3.0905264333,-0.4214445145\H,-2.4366769442,-2.1189941067
 ,-0.7415123786\H,-3.9168099176,-3.8537937597,0.2295168787\H,-6.3537803
 666,-3.8281499683,-0.2646560778\H,-7.2876905819,-2.0646791093,-1.74547
 6765\H,-5.7968628376,-0.3190834588,-2.6820433265\H,-4.0023609036,4.615
 2168709,0.5316313905\H,-5.2630780312,3.7777842075,1.4461976786\H,-4.95
 94401719,3.3473359593,-0.249074831\H,-2.0645346569,4.1007934679,1.9428
 151391\H,-1.9611900132,2.5420192151,2.7667044496\H,-3.3441579412,3.632
 2447973,3.069124362\H,-4.9616275689,0.9996743045,-0.4607545605\H,-6.09
 16204062,1.5458287798,0.7938742222\H,-5.5576836682,-0.137397003,0.7577
 152751\H,-3.7723456,1.3148539158,3.6945069246\H,-5.0939066162,0.263164
 7053,3.156274267\H,-5.3019983483,2.0216751457,3.1431949083\Ru,-1.14233
 66413,0.6867044004,0.3677940408\P,0.7131139664,1.6079948147,-0.5378223
 891\P,0.0035740776,-1.1589631434,0.9763868113\C,0.3441812469,2.9509281
 093,-1.7716618557\C,2.0000194332,2.4357199031,0.5040600732\C,1.7605968
 166,0.4109133049,-1.4936538174\C,-0.8903624269,-1.9671609581,2.3876732
 526\C,0.3255768629,-2.6012478314,-0.130337313\C,1.7470862446,-0.867207
 3226,1.558630915\C,2.5210060814,-0.5499836056,-0.8413602329\C,1.623501
 8297,0.3539852139,-2.9063283533\C,2.7394144091,-0.5302925398,0.6454734
 626\C,2.0505589899,-0.8652710088,2.944989986\C,3.1545575738,-1.5933279
 462,-1.5997073006\C,2.2330210207,-0.6216942327,-3.6448013838\H,1.02639
 02733,1.105680115,-3.411964195\C,4.047058334,-0.1636093813,1.115913151
 8\C,3.2814042361,-0.493523265,3.4106170881\H,1.2959123966,-1.171847907
 4,3.6586200267\C,3.0147444733,-1.6206811854,-3.0140896005\C,3.91349558
 26,-2.627551291,-0.9857364931\H,2.1212928485,-0.6416274112,-4.72603113
 17\C,4.3084759568,-0.1202026059,2.5117138995\C,5.1061187065,0.18547781
 7,0.2314799254\H,3.4854137052,-0.4930527858,4.4784350559\C,3.645526563
 1,-2.6470996025,-3.7642756684\C,4.5133271478,-3.608141641,-1.733771739
 \H,4.0089014692,-2.6444488106,0.0940943281\C,5.590775721,0.2741420326,
 2.9783331166\C,6.3390118943,0.5512171882,0.706697438\H,4.9291212266,0.
 1752953673,-0.8377805255\C,4.3834866154,-3.6199323029,-3.1413285043\H,
 3.5266162888,-2.6487579189,-4.8449278047\H,5.0832566243,-4.38970245,-1
 .2399595072\C,6.5881112324,0.6018264652,2.0976436232\H,5.7661731657,0.
 3064251102,4.050685702\H,7.12769091,0.8166144286,0.0088864944\H,4.8628
 367411,-4.4023020632,-3.7222611108\H,7.5666585738,0.8994961952,2.46258
 07199\C,1.0793062178,4.1309555385,-1.9356813139\C,-0.7979401002,2.7736
 208825,-2.5631055326\C,0.6941215679,5.0860799736,-2.8757635261\H,1.954
 6806939,4.324246841,-1.326493715\C,-1.1806669073,3.7201313959,-3.50803
 94463\H,-1.4088304631,1.8912126533,-2.4131641666\C,-0.4314323515,4.882
 946428,-3.6703295925\H,1.2777932738,5.9959427851,-2.9824851894\H,-2.07
 27325575,3.547717341,-4.103251566\H,-0.7273535443,5.6299252551,-4.4009
 797696\C,3.2516985315,2.7639233526,-0.0312019573\C,1.7440540836,2.7492
 308169,1.8395067144\C,4.2181765955,3.3940151989,0.7447288866\H,3.48468
 16053,2.5028315257,-1.0604917475\C,2.715240284,3.3676646787,2.62447438
 69\H,0.7825800521,2.4752146488,2.2627373843\C,3.9540198719,3.692653892
 6,2.0793805052\H,5.1872098123,3.6255769017,0.3134641294\H,2.5046513643
 ,3.5874795767,3.667495074\H,4.7139821315,4.1689866835,2.6920591513\C,-
 1.5432532877,-3.1947936751,2.2326816125\C,-1.1402020249,-1.2354636305,
 3.5610368343\C,-2.3972410555,-3.6859989578,3.2202573624\H,-1.399556839
 2,-3.7780966901,1.329651408\C,-1.9785519983,-1.731221197,4.5551805372\
 H,-0.7047274203,-0.2468152843,3.6756980075\C,-2.61304788,-2.961775196,
 4.3876187953\H,-2.89467278,-4.6397345383,3.0696670316\H,-2.1491991466,
 -1.1466603504,5.4543811518\H,-3.2778297536,-3.344162227,5.1561770224\C
 ,0.9649209614,-3.7592513773,0.3284003071\C,-0.0010060024,-2.5015563717
 ,-1.4791949875\C,1.2416157085,-4.8041461093,-0.5456526016\H,1.24928894
 86,-3.844957561,1.3745764585\C,0.2858284725,-3.5397298602,-2.361618168
 9\H,-0.4466316895,-1.5761978424,-1.8275056532\C,0.9030319351,-4.695485
 6546,-1.8947565267\H,1.7371980977,-5.6984074686,-0.1792229989\H,0.0468
 846504,-3.4339960551,-3.4162369233\H,1.1373833798,-5.504386933,-2.5805
 254182\\Version=ES64L-G09RevD.01\State=1-A\HF=-3206.7703558\RMSD=4.917
 e-09\RMSF=1.940e-06\Dipole=-0.318274,-0.7171233,1.3380111\Quadrupole=3
 .099594,-3.377996,0.278402,4.3925476,-11.5466115,0.6043528\PG=C01 [X(C
 58H58N2O1P2Ru1)]\\@


 MODELS ARE TO BE USED, NOT BELIEVED.

    -- PARAPHRASED BY H. THIEL IN "PRINCIPLES OF ECONOMETRICS"
 Job cpu time:       1 days  5 hours 43 minutes 41.5 seconds.
 File lengths (MBytes):  RWF=   1400 Int=      0 D2E=      0 Chk=    109 Scr=      1
 Normal termination of Gaussian 09 at Thu Dec 20 15:15:40 2018.
